VARIABLES =  "powerdemand","mach", "altitude", "drag"
ZONE T = "FCmapR2_Drag", I = 8, J = 4, K = 5
36.84576979	0.25	0	0.002282081
72.2790193	0.25	0	0.005541466
106.3123985	0.25	0	0.009890812
138.9682787	0.25	0	0.01543856
170.2771278	0.25	0	0.022287942
200.2762744	0.25	0	0.030536043
229.0089404	0.25	0	0.040272932
256.523459	0.25	0	0.051580845
37.17098065	0.4	0	0.002864165
72.9032022	0.4	0	0.006954912
107.2139677	0.4	0	0.012413633
140.1291741	0.4	0	0.019376431
171.6820239	0.4	0	0.027972865
201.9120285	0.4	0	0.038324786
230.8642116	0.4	0	0.050545236
258.5884491	0.4	0	0.064737428
37.84230292	0.6	0	0.005349019
74.19860042	0.6	0	0.01298876
109.0935422	0.6	0	0.023183285
142.5586521	0.6	0	0.036186772
174.6315404	0.6	0	0.052241185
205.3552701	0.6	0	0.071574086
234.7778245	0.6	0	0.094396589
262.9516406	0.6	0	0.120901449
38.64576096	0.773	0	0.020352621
75.75932321	0.773	0	0.049421272
111.3711587	0.773	0	0.088210686
145.5172878	0.773	0	0.137687991
178.2388681	0.773	0	0.198773845
209.5818429	0.773	0	0.272334105
239.5966198	0.773	0	0.359172039
268.3377617	0.773	0	0.460021073
35.31547345	0.25	10000	0.001127897
69.42326639	0.25	10000	0.002738817
102.3122	0.25	10000	0.00488844
133.9919463	0.25	10000	0.007630362
164.4870876	0.25	10000	0.011015604
193.8329594	0.25	10000	0.01509215
222.0726884	0.25	10000	0.019904515
249.2550576	0.25	10000	0.025493344
35.60030738	0.4	10000	0.001246336
69.95572583	0.4	10000	0.003026415
103.0652828	0.4	10000	0.005401767
134.9458463	0.4	10000	0.008431613
165.6272369	0.4	10000	0.012172334
195.1487415	0.4	10000	0.016676951
223.5565881	0.4	10000	0.021994654
250.9020974	0.4	10000	0.028170356
36.19056725	0.6	10000	0.00159493
71.0680402	0.6	10000	0.00387289
104.6482694	0.6	10000	0.006912615
136.9602529	0.6	10000	0.010789896
168.0428152	0.6	10000	0.015576878
197.9421527	0.6	10000	0.021341416
226.7099958	0.6	10000	0.028146456
254.4022242	0.6	10000	0.036049473
36.90041731	0.773	10000	0.002359854
72.41930547	0.773	10000	0.005730319
106.5868768	0.773	10000	0.01022789
139.4427765	0.773	10000	0.015964706
171.0339297	0.773	10000	0.023047515
201.4128856	0.773	10000	0.031576711
230.6365328	0.773	10000	0.041645433
258.7650994	0.773	10000	0.05333872
34.51543485	0.25	20000	0.000795201
68.09315053	0.25	20000	0.001930947
100.6234562	0.25	20000	0.003446495
132.0507471	0.25	20000	0.005379631
162.3543522	0.25	20000	0.007766327
191.5367433	0.25	20000	0.010640413
219.6160338	0.25	20000	0.014033273
246.6210968	0.25	20000	0.017973563
34.75563972	0.4	20000	0.000832208
68.52371998	0.4	20000	0.00202081
101.2150039	0.4	20000	0.003606889
132.7866708	0.4	20000	0.005629991
163.2264512	0.4	20000	0.00812776
192.542638	0.4	20000	0.011135601
220.7576031	0.4	20000	0.014686359
247.9035003	0.4	20000	0.018810024
35.25668555	0.6	20000	0.00092975
69.43252699	0.6	20000	0.002257667
102.4731379	0.6	20000	0.004029648
134.3582095	0.6	20000	0.006289875
165.0906818	0.6	20000	0.009080404
194.6896268	0.6	20000	0.01244079
223.1854519	0.6	20000	0.016407728
250.6166085	0.6	20000	0.021014722
35.86418088	0.773	20000	0.001099098
70.55118707	0.773	20000	0.002668885
104.0379564	0.773	20000	0.004763621
136.3253066	0.773	20000	0.007435532
167.4309812	0.773	20000	0.010734336
197.3848661	0.773	20000	0.014706793
226.2256323	0.773	20000	0.019396282
253.9983457	0.773	20000	0.024842408
33.58766081	0.25	30000	0.001206223
66.65538546	0.25	30000	0.002929013
98.87038654	0.25	30000	0.005227916
130.0503292	0.25	30000	0.00816025
160.0967973	0.25	30000	0.011780579
188.9610722	0.25	30000	0.01614022
216.6256104	0.25	30000	0.021286778
243.0938309	0.25	30000	0.027263722
33.78664151	0.4	30000	0.00123568
66.98956704	0.4	30000	0.003000542
99.31580133	0.4	30000	0.005355586
130.6035827	0.4	30000	0.00835953
160.766076	0.4	30000	0.01206827
189.7615685	0.4	30000	0.016534376
217.5768958	0.4	30000	0.021806618
244.218015	0.4	30000	0.027929523
34.20656069	0.6	30000	0.001313206
67.70639326	0.6	30000	0.003188793
100.2766277	0.6	30000	0.00569159
131.7934506	0.6	30000	0.008883999
162.1922179	0.6	30000	0.012825422
191.4451506	0.6	30000	0.017571728
219.5483019	0.6	30000	0.023174745
246.5137452	0.6	30000	0.029681795
34.72315577	0.773	30000	0.001442773
68.60744132	0.773	30000	0.003503414
101.4961031	0.773	30000	0.006253149
133.3033831	0.773	30000	0.009760536
163.9880284	0.773	30000	0.014090839
193.5376035	0.773	30000	0.019305437
221.9588454	0.773	30000	0.025461273
249.2715824	0.773	30000	0.03261034
32.85998907	0.25	37500	0.001980497
65.6099964	0.25	37500	0.004809143
97.60845681	0.25	37500	0.008583709
128.5280363	0.25	37500	0.013398304
158.1943063	0.25	37500	0.019342518
186.5170439	0.25	37500	0.026500606
213.41461	0.25	37500	0.034950734
238.644827	0.25	37500	0.04476427
33.02489156	0.4	37500	0.002008686
65.87061814	0.4	37500	0.004877594
97.95704459	0.4	37500	0.008705886
128.9826752	0.4	37500	0.01358901
158.7850583	0.4	37500	0.019617832
187.2790021	0.4	37500	0.026877805
214.4279667	0.4	37500	0.035448208
239.964429	0.4	37500	0.045401426
33.37791103	0.6	37500	0.002086619
66.43829936	0.6	37500	0.005066834
98.71216954	0.6	37500	0.009043654
129.9477346	0.6	37500	0.014116233
160.0071684	0.6	37500	0.020378958
188.8175836	0.6	37500	0.027920602
216.3465034	0.6	37500	0.036823517
242.5896931	0.6	37500	0.047162896
33.82004989	0.773	37500	0.002220446
67.16708701	0.773	37500	0.005391799
99.68103485	0.773	37500	0.009623675
131.162881	0.773	37500	0.015021588
161.5029565	0.773	37500	0.021685978
190.644346	0.773	37500	0.02971131
218.5632368	0.773	37500	0.03918522
245.2581847	0.773	37500	0.050187723

