VARIABLES =  "powerdemand","mach", "altitude", "drag"
ZONE T = "FCmapR2_Drag", I = 10, J = 4, K = 5
285.5307702	0.25	0	0.000792562
577.0651541	0.25	0	0.001321281
870.1942438	0.25	0	0.001510727
1172.111155	0.25	0	0.001225421
1488.264035	0.25	0	0.000308698
1815.880528	0.25	0	-0.001433232
2159.946025	0.25	0	-0.004485863
2522.023736	0.25	0	-0.009453893
2906.411209	0.25	0	-0.017479686
3305.108551	0.25	0	-0.030404687
290.6270523	0.4	0	0.001370054
587.4713535	0.4	0	0.00254269
886.203255	0.4	0	0.003478487
1193.879713	0.4	0	0.004038315
1515.951297	0.4	0	0.0040873
1849.569131	0.4	0	0.003443438
2200.082438	0.4	0	0.001728121
2568.955126	0.4	0	-0.001632357
2960.537466	0.4	0	-0.007683005
3366.650027	0.4	0	-0.01817258
300.6799607	0.6	0	0.002157571
608.0085699	0.6	0	0.00421189
917.8191426	0.6	0	0.006174325
1236.901691	0.6	0	0.00790113
1570.715358	0.6	0	0.009287634
1916.263145	0.6	0	0.010167358
2279.626277	0.6	0	0.010307416
2662.053434	0.6	0	0.009170553
3068.020078	0.6	0	0.005831465
3488.922108	0.6	0	-0.001366369
311.9917456	0.773	0	0.002863496
631.1361434	0.773	0	0.005712456
953.4622946	0.773	0	0.008606315
1285.4635	0.773	0	0.011398293
1632.616369	0.773	0	0.014012419
1991.764376	0.773	0	0.016296909
2369.833537	0.773	0	0.018152354
2767.819555	0.773	0	0.019071055
3190.351253	0.773	0	0.018226438
3628.227843	0.773	0	0.014014412
287.265373	0.25	10000	0.000673155
580.1525686	0.25	10000	0.000920511
880.3950382	0.25	10000	0.000619559
1191.474291	0.25	10000	-0.000405168
1519.695897	0.25	10000	-0.002373348
1861.385743	0.25	10000	-0.005538208
2220.882705	0.25	10000	-0.010611034
2597.55919	0.25	10000	-0.018396917
2991.833317	0.25	10000	-0.030480977
3388.518094	0.25	10000	-0.049466608
292.3092736	0.4	10000	0.001219002
590.3425849	0.4	10000	0.002070853
895.9999453	0.4	10000	0.002477554
1212.552897	0.4	10000	0.002249566
1546.340399	0.4	10000	0.00119011
1893.607589	0.4	10000	-0.00094768
2259.03613	0.4	10000	-0.0047786
2641.871802	0.4	10000	-0.011084301
3042.545681	0.4	10000	-0.02136788
3445.527515	0.4	10000	-0.038161018
302.2400384	0.6	10000	0.001960731
610.4144535	0.6	10000	0.003638159
926.7564008	0.6	10000	0.005016055
1254.12429	0.6	10000	0.005885357
1598.924807	0.6	10000	0.006079857
1957.243967	0.6	10000	0.005359198
2334.441676	0.6	10000	0.003236751
2729.502707	0.6	10000	-0.001047562
3142.859251	0.6	10000	-0.008907515
3558.222989	0.6	10000	-0.022823919
313.3807376	0.773	10000	0.002621635
632.9487123	0.773	10000	0.005039304
961.3206383	0.773	10000	0.007293831
1300.892522	0.773	10000	0.009158909
1658.151392	0.773	10000	0.010495918
2029.012986	0.773	10000	0.011069126
2419.577647	0.773	10000	0.010504969
2828.560952	0.773	10000	0.008054291
3256.317018	0.773	10000	0.002362875
3685.482136	0.773	10000	-0.009060603
289.2416002	0.25	20000	0.000512848
587.7280995	0.25	20000	0.000356617
894.7398306	0.25	20000	-0.000664509
1216.757564	0.25	20000	-0.002767221
1558.490564	0.25	20000	-0.006250965
1914.787717	0.25	20000	-0.011427507
2288.214369	0.25	20000	-0.019319319
2673.727963	0.25	20000	-0.031027524
3063.667196	0.25	20000	-0.04882601
3409.802741	0.25	20000	-0.07356479
294.1769917	0.4	20000	0.00102517
597.6791485	0.4	20000	0.001440294
909.869673	0.4	20000	0.001083603
1237.05818	0.4	20000	-0.000271236
1583.971729	0.4	20000	-0.002904949
1945.374006	0.4	20000	-0.007127523
2324.139916	0.4	20000	-0.013874509
2715.072584	0.4	20000	-0.024229838
3110.391415	0.4	20000	-0.040401149
3463.792171	0.4	20000	-0.063570315
303.8775564	0.6	20000	0.001719592
617.2453479	0.6	20000	0.002914015
939.6329916	0.6	20000	0.00346843
1277.012883	0.6	20000	0.003142328
1634.146714	0.6	20000	0.001678588
2005.635227	0.6	20000	-0.001234232
2394.929942	0.6	20000	-0.006420529
2796.537045	0.6	20000	-0.014956925
3202.349781	0.6	20000	-0.028998385
3570.422066	0.6	20000	-0.050710387
314.7307686	0.773	20000	0.002335456
639.1500829	0.773	20000	0.004225827
972.9805677	0.773	20000	0.005599269
1321.816456	0.773	20000	0.006202057
1690.463461	0.773	20000	0.005796957
2073.313632	0.773	20000	0.004067859
2474.487058	0.773	20000	0.000283977
2888.094433	0.773	20000	-0.006640142
3305.552053	0.773	20000	-0.018843214
3690.752693	0.773	20000	-0.040182651
293.1816624	0.25	30000	0.000306363
595.0876604	0.25	30000	-0.000456634
910.3883718	0.25	30000	-0.002611717
1241.074453	0.25	30000	-0.006418929
1591.282919	0.25	30000	-0.012300706
1952.834602	0.25	30000	-0.020676419
2322.791465	0.25	30000	-0.033112002
2684.379713	0.25	30000	-0.051028165
3010.462396	0.25	30000	-0.076675686
3287.848105	0.25	30000	-0.113433122
298.030898	0.4	30000	0.000803877
604.8127487	0.4	30000	0.000594181
925.1476668	0.4	30000	-0.000911084
1260.7786	0.4	30000	-0.003991636
1615.880899	0.4	30000	-0.00905098
1982.18681	0.4	30000	-0.016510678
2357.009149	0.4	30000	-0.027857208
2723.906222	0.4	30000	-0.044606506
3055.48953	0.4	30000	-0.069436857
3338.02878	0.4	30000	-0.103104974
307.5529649	0.6	30000	0.001478123
623.9144673	0.6	30000	0.00202422
954.1471571	0.6	30000	0.001411737
1299.504472	0.6	30000	-0.000668294
1664.237479	0.6	30000	-0.00459758
2039.877212	0.6	30000	-0.010808143
2424.227151	0.6	30000	-0.020692358
2801.775464	0.6	30000	-0.036069977
3144.134805	0.6	30000	-0.061129769
3434.391765	0.6	30000	-0.089176247
318.1905367	0.773	30000	0.002075267
645.264126	0.773	30000	0.003295897
986.5785026	0.773	30000	0.003485187
1342.836744	0.773	30000	0.002306178
1718.364246	0.773	30000	-0.000606845
2104.451101	0.773	30000	-0.005701943
2499.411844	0.773	30000	-0.014301162
2889.266924	0.773	30000	-0.028742166
3243.643663	0.773	30000	-0.060395389
3546.741367	0.773	30000	-0.076643461
295.2468325	0.25	37000	0.000100805
599.6443917	0.25	37000	-0.001285521
916.8523221	0.25	37000	-0.004589566
1248.135168	0.25	37000	-0.010100321
1595.111145	0.25	37000	-0.018334168
1946.319883	0.25	37000	-0.029811843
2289.6482	0.25	37000	-0.046213736
2595.203875	0.25	37000	-0.065042469
2920.498497	0.25	37000	-0.091620506
3238.369982	0.25	37000	-0.113699192
300.0065379	0.4	37000	0.000588497
609.199128	0.4	37000	-0.000252799
931.3415151	0.4	37000	-0.002917518
1267.461486	0.4	37000	-0.007715169
1619.212173	0.4	37000	-0.01514676
1975.03762	0.4	37000	-0.025737515
2323.131454	0.4	37000	-0.0411181
2633.889485	0.4	37000	-0.059159807
2963.779595	0.4	37000	-0.08359377
3285.751311	0.4	37000	-0.103643302
309.3474958	0.6	37000	0.001249867
627.9535181	0.6	37000	0.001154841
959.7856196	0.6	37000	-0.000629056
1305.401143	0.6	37000	-0.00444316
1666.518571	0.6	37000	-0.010773629
2031.354968	0.6	37000	-0.020162869
2388.982416	0.6	37000	-0.034287217
2795.915917	0.6	37000	-0.057092662
3145.538574	0.6	37000	-0.070533395
3452.777917	0.6	37000	-0.087854487
319.7735941	0.773	37000	0.001835511
648.8931372	0.773	37000	0.002406919
991.5538047	0.773	37000	0.001414202
1347.783319	0.773	37000	-0.001515574
1719.339127	0.773	37000	-0.006861175
2094.177383	0.773	37000	-0.015190128
2462.761903	0.773	37000	-0.028419456
2795.045856	0.773	37000	-0.049026877
3143.610323	0.773	37000	-0.062994431
3481.46985	0.773	37000	-0.077944607


