VARIABLES =  "powerdemand","mach", "altitude", "drag",
ZONE T = "FCmapR2_Drag", I = 26, J = 4, K = 5	
275.6952044	0.250	0	0.001506656
327.3640587	0.250	0	0.00278777
377.7929449	0.250	0	0.004491669
426.9522461	0.250	0	0.006663116
474.8148789	0.250	0	0.009348644
521.356079	0.250	0	0.012596553
566.5532104	0.250	0	0.016456915
610.3855936	0.250	0	0.020981569
652.8343491	0.250	0	0.026224123
693.8822525	0.250	0	0.032239956
733.5136008	0.250	0	0.039086215
771.7140858	0.250	0	0.046821816
808.4706769	0.250	0	0.055507444
843.7715097	0.250	0	0.065205555
877.6057817	0.250	0	0.075980372
909.9636541	0.250	0	0.087897888
940.8361603	0.250	0	0.101025865
971.6148448	0.250	0	0.115433834
1001.20144	0.250	0	0.131193096
1029.443442	0.250	0	0.14837672
1056.333004	0.250	0	0.167059545
1081.862394	0.250	0	0.18731818
1106.023994	0.250	0	0.209231
1128.810297	0.250	0	0.232878153
1150.213904	0.250	0	0.258341553
1170.227529	0.250	0	0.285704886
277.7923564	0.400	0	0.001576839
329.8254739	0.400	0	0.00291763
380.6044254	0.400	0	0.0047009
430.1008809	0.400	0	0.006973498
478.2888833	0.400	0	0.009784123
525.1446691	0.400	0	0.013183327
570.6465071	0.400	0	0.017223513
614.7745489	0.400	0	0.021958934
657.5106914	0.400	0	0.027445698
698.8384467	0.400	0	0.033741761
738.7428193	0.400	0	0.040906933
777.2101892	0.400	0	0.049002874
814.2282012	0.400	0	0.058093098
849.7856588	0.400	0	0.068242967
883.8724235	0.400	0	0.079519698
916.4793192	0.400	0	0.091992356
947.5980422	0.400	0	0.105731862
978.6208002	0.400	0	0.120810985
1008.449991	0.400	0	0.137304346
1036.933774	0.400	0	0.15528842
1064.064967	0.400	0	0.174841531
1089.836502	0.400	0	0.196043855
1114.241419	0.400	0	0.218977421
1137.272863	0.400	0	0.243726107
1158.924083	0.400	0	0.270375647
1179.188427	0.400	0	0.299013621
282.1673243	0.600	0	0.001761833
334.972857	0.600	0	0.003259926
386.4967038	0.600	0	0.005252409
436.712607	0.600	0	0.007791627
485.596432	0.600	0	0.010931994
533.1260445	0.600	0	0.014729992
579.2811944	0.600	0	0.019244171
624.0434042	0.600	0	0.02453515
667.3958605	0.600	0	0.030665619
709.3233085	0.600	0	0.037700335
749.8119476	0.600	0	0.045706123
788.8493301	0.600	0	0.054751878
826.4242609	0.600	0	0.064908564
862.5267004	0.600	0	0.076249213
897.1476698	0.600	0	0.088848927
930.2791595	0.600	0	0.102784875
961.9140413	0.600	0	0.118136295
993.4457095	0.600	0	0.134984497
1023.777758	0.600	0	0.153412855
1052.759552	0.600	0	0.173506815
1080.385125	0.600	0	0.195353891
1106.648626	0.600	0	0.219043666
1131.544319	0.600	0	0.244667792
1155.066573	0.600	0	0.272319988
1177.209855	0.600	0	0.302096044
1197.968727	0.600	0	0.334093817
287.4732573	0.773	0	0.002083052
341.2353333	0.773	0	0.003854277
393.6861316	0.773	0	0.006210031
444.8010451	0.773	0	0.009212202
494.5573959	0.773	0	0.012925123
542.9343587	0.773	0	0.017415574
589.9128825	0.773	0	0.022752781
635.47561	0.773	0	0.029008416
679.6067946	0.773	0	0.036256596
722.2922155	0.773	0	0.044573886
763.5190895	0.773	0	0.054039294
803.2759819	0.773	0	0.064734278
841.5527168	0.773	0	0.076742738
878.3402867	0.773	0	0.090151022
913.6307628	0.773	0	0.105047923
947.417207	0.773	0	0.121524682
979.6935858	0.773	0	0.139674984
1011.854412	0.773	0	0.159594961
1042.804421	0.773	0	0.18138319
1072.394143	0.773	0	0.205140695
1100.618794	0.773	0	0.230970945
1127.47373	0.773	0	0.258979856
1152.954432	0.773	0	0.289275789
1177.056502	0.773	0	0.321969552
1199.775647	0.773	0	0.357174398
1221.10768	0.773	0	0.395006027
266.4682473	0.250	10000	0.001240633
316.7839271	0.250	10000	0.002295547
366.013099	0.250	10000	0.003698596
414.1255706	0.250	10000	0.005486642
461.094525	0.250	10000	0.007697999
506.8958953	0.250	10000	0.01037244
551.5078557	0.250	10000	0.013551196
594.9104066	0.250	10000	0.017276953
637.0850364	0.250	10000	0.021593855
678.0144474	0.250	10000	0.026547501
717.6823322	0.250	10000	0.032184949
756.0731951	0.250	10000	0.038554712
793.1722087	0.250	10000	0.045706761
828.9651011	0.250	10000	0.053692522
863.4380686	0.250	10000	0.062564881
896.5777089	0.250	10000	0.072378178
928.3709737	0.250	10000	0.083188211
958.8051348	0.250	10000	0.095052234
987.8677639	0.250	10000	0.108028959
1015.546724	0.250	10000	0.122178553
1041.830166	0.250	10000	0.137562641
1066.706543	0.250	10000	0.154244305
1090.164616	0.250	10000	0.172288084
1112.193485	0.250	10000	0.191759972
1132.782607	0.250	10000	0.212727422
1151.921831	0.250	10000	0.235259342
268.2148947	0.400	10000	0.001266656
318.8125729	0.400	10000	0.002343697
368.3098287	0.400	10000	0.003776177
416.678881	0.400	10000	0.005601727
463.8949566	0.400	10000	0.007859469
509.9357519	0.400	10000	0.010590009
554.7809893	0.400	10000	0.013835441
598.4120542	0.400	10000	0.017639349
640.8116952	0.400	10000	0.0220468
681.963779	0.400	10000	0.027104352
721.8530901	0.400	10000	0.032860049
760.4651679	0.400	10000	0.039363422
797.7861752	0.400	10000	0.046665489
833.8027937	0.400	10000	0.054818757
868.502141	0.400	10000	0.06387722
901.871707	0.400	10000	0.073896357
933.8993062	0.400	10000	0.084933137
964.5730423	0.400	10000	0.097046016
993.8812853	0.400	10000	0.110294936
1021.812657	0.400	10000	0.124741326
1048.356026	0.400	10000	0.140448106
1073.500507	0.400	10000	0.157479679
1097.235469	0.400	10000	0.175901937
1119.550547	0.400	10000	0.195782261
1140.435658	0.400	10000	0.217189516
1159.881022	0.400	10000	0.240194057
271.8894547	0.600	10000	0.00133577
323.0930425	0.600	10000	0.002471579
373.1676115	0.600	10000	0.003982221
422.0895607	0.600	10000	0.005907381
469.8376946	0.600	10000	0.008288314
516.3928222	0.600	10000	0.011167844
561.7374223	0.600	10000	0.01459036
605.8553623	0.600	10000	0.018601825
648.7316647	0.600	10000	0.023249765
690.3523116	0.600	10000	0.028583278
730.7040825	0.600	10000	0.034653029
769.7744202	0.600	10000	0.041511253
807.5513211	0.600	10000	0.049211752
844.0232453	0.600	10000	0.057809896
879.179044	0.600	10000	0.067362626
913.007902	0.600	10000	0.077928449
945.4992921	0.600	10000	0.089567441
976.6429398	0.600	10000	0.102341249
1006.428797	0.600	10000	0.116313084
1034.847025	0.600	10000	0.13154773
1061.887976	0.600	10000	0.148111536
1087.542194	0.600	10000	0.166072422
1111.800403	0.600	10000	0.185499876
1134.653515	0.600	10000	0.206464952
1156.09263	0.600	10000	0.229040276
1176.109042	0.600	10000	0.25330004
276.3945499	0.773	10000	0.001451625
328.3621261	0.773	10000	0.002685945
379.1676701	0.773	10000	0.004327609
428.791376	0.773	10000	0.006419743
477.2153366	0.773	10000	0.00900718
524.4232554	0.773	10000	0.012136458
570.4002015	0.773	10000	0.015855818
615.1323998	0.773	10000	0.020215207
658.6070536	0.773	10000	0.025266275
700.8121925	0.773	10000	0.031062376
741.736545	0.773	10000	0.037658572
781.3694309	0.773	10000	0.045111627
819.7006709	0.773	10000	0.053480009
856.7205117	0.773	10000	0.062823892
892.4195641	0.773	10000	0.073205153
926.7887513	0.773	10000	0.084687376
959.8192682	0.773	10000	0.097335848
991.5025466	0.773	10000	0.111217559
1021.830229	0.773	10000	0.126401206
1050.794148	0.773	10000	0.142957191
1078.386308	0.773	10000	0.160957617
1104.598874	0.773	10000	0.180476295
1129.42416	0.773	10000	0.20158874
1152.854628	0.773	10000	0.224372169
1174.882878	0.773	10000	0.248905507
1195.50165	0.773	10000	0.275269381
262.6115451	0.250	20000	0.001221293
312.5712313	0.250	20000	0.002259763
361.5054702	0.250	20000	0.003640941
409.3635453	0.250	20000	0.005401114
456.1015922	0.250	20000	0.007577999
501.6811032	0.250	20000	0.01021075
546.067786	0.250	20000	0.013339955
589.2306877	0.250	20000	0.017007633
631.1415234	0.250	20000	0.021257241
671.7741633	0.250	20000	0.026133668
711.1042452	0.250	20000	0.031683237
749.1088879	0.250	20000	0.037953705
785.7664859	0.250	20000	0.044994265
821.0565718	0.250	20000	0.052855541
854.9597361	0.250	20000	0.061589594
887.4575947	0.250	20000	0.071249918
918.5327976	0.250	20000	0.081891439
948.1690757	0.250	20000	0.093570521
975.982988	0.250	20000	0.106344959
1002.263316	0.250	20000	0.120273983
1027.117854	0.250	20000	0.135418258
1050.539768	0.250	20000	0.151839882
1072.522657	0.250	20000	0.169602387
1093.06054	0.250	20000	0.188770739
1112.14785	0.250	20000	0.209411339
1129.77942	0.250	20000	0.231592022
263.9785951	0.400	20000	0.001225684
314.1406914	0.400	20000	0.002267886
363.2686581	0.400	20000	0.003654029
411.3154584	0.400	20000	0.005420529
458.2402033	0.400	20000	0.00760524
504.0068482	0.400	20000	0.010247455
548.5831851	0.400	20000	0.013387908
591.9400623	0.400	20000	0.017068771
634.050777	0.400	20000	0.021333655
674.8906062	0.400	20000	0.026227611
714.4364461	0.400	20000	0.031797129
752.6665383	0.400	20000	0.038090137
789.5602689	0.400	20000	0.045156006
825.0980251	0.400	20000	0.053045541
859.2611021	0.400	20000	0.061810991
892.0316511	0.400	20000	0.07150604
923.3926634	0.400	20000	0.082185815
953.3279858	0.400	20000	0.093906879
981.8223628	0.400	20000	0.106727238
1008.639073	0.400	20000	0.120706333
1033.759268	0.400	20000	0.135905047
1057.446839	0.400	20000	0.152385701
1079.695384	0.400	20000	0.170212057
1100.498924	0.400	20000	0.189449314
1119.851891	0.400	20000	0.210164111
1137.749117	0.400	20000	0.232424527
266.8886843	0.600	20000	0.001243488
317.4904297	0.600	20000	0.002300829
367.0370505	0.600	20000	0.003707108
415.4882644	0.600	20000	0.005499268
462.8087129	0.600	20000	0.007715714
508.966979	0.600	20000	0.01039631
553.934812	0.600	20000	0.013582381
597.6865134	0.600	20000	0.017316713
640.1984492	0.600	20000	0.021643549
681.4486636	0.600	20000	0.026608594
721.4165751	0.600	20000	0.032259015
760.0827372	0.600	20000	0.038643437
797.4286545	0.600	20000	0.045811945
833.4366438	0.600	20000	0.053816084
868.0897321	0.600	20000	0.062708861
901.3715867	0.600	20000	0.072544741
933.266472	0.600	20000	0.083379651
963.7592288	0.600	20000	0.095270976
992.8352746	0.600	20000	0.108277564
1020.48062	0.600	20000	0.12245972
1046.681904	0.600	20000	0.137879211
1071.426434	0.600	20000	0.154599265
1094.408672	0.600	20000	0.172684567
1115.757148	0.600	20000	0.192201265
1135.655051	0.600	20000	0.213216967
1154.097214	0.600	20000	0.235800739
270.5127939	0.773	20000	0.001281272
321.679204	0.773	20000	0.002370742
371.7620368	0.773	20000	0.003819751
420.7277035	0.773	20000	0.005666367
468.5464185	0.773	20000	0.007950161
515.1914969	0.773	20000	0.010712209
560.6387864	0.773	20000	0.013995091
604.8662084	0.773	20000	0.017842893
647.8533844	0.773	20000	0.022301203
689.5813341	0.773	20000	0.027417115
730.0322312	0.773	20000	0.033239228
769.1892064	0.773	20000	0.039817644
807.0361911	0.773	20000	0.047203972
843.5577925	0.773	20000	0.055451323
878.7391982	0.773	20000	0.064614312
912.5661028	0.773	20000	0.074749063
945.0246547	0.773	20000	0.085913198
976.1014191	0.773	20000	0.09816585
1005.783356	0.773	20000	0.111567652
1034.057811	0.773	20000	0.126180742
1060.912515	0.773	20000	0.142068766
1086.335593	0.773	20000	0.159296869
1110.315587	0.773	20000	0.177931706
1132.841478	0.773	20000	0.198041433
1153.90272	0.773	20000	0.219695711
1173.48928	0.773	20000	0.242965706
258.6197375	0.250	30000	0.001456853
308.2327886	0.250	30000	0.002695619
356.8222825	0.250	30000	0.004343196
404.3043163	0.250	30000	0.006442865
450.6088956	0.250	30000	0.009039622
495.6764847	0.250	30000	0.012180172
539.4556313	0.250	30000	0.015912928
581.9013531	0.250	30000	0.020288018
622.9740813	0.250	30000	0.025357279
662.6390252	0.250	30000	0.031174257
700.8641891	0.250	30000	0.037794212
737.1151693	0.250	30000	0.045274111
771.9820431	0.250	30000	0.053672634
805.4536963	0.250	30000	0.063050172
837.5195485	0.250	30000	0.073468825
868.1695586	0.250	30000	0.084992404
897.3942261	0.250	30000	0.097686433
925.1845904	0.250	30000	0.111618144
951.5322258	0.250	30000	0.12685648
976.4292344	0.250	30000	0.143472096
999.8682364	0.250	30000	0.161537357
1021.842358	0.250	30000	0.181126338
1042.345219	0.250	30000	0.202314825
1061.370913	0.250	30000	0.225180316
1078.913998	0.250	30000	0.249802018
1094.969472	0.250	30000	0.27626085
259.6468318	0.400	30000	0.001449518
309.4102594	0.400	30000	0.002682048
358.1556973	0.400	30000	0.004321329
405.8039103	0.400	30000	0.006410428
452.288388	0.400	30000	0.008994111
497.5522233	0.400	30000	0.012118848
541.5459202	0.400	30000	0.015832811
584.2258655	0.400	30000	0.020185874
625.5532857	0.400	30000	0.025229613
665.4935731	0.400	30000	0.031017304
704.0159001	0.400	30000	0.037603929
741.0276872	0.400	30000	0.045046169
776.1390934	0.400	30000	0.053402409
809.8552789	0.400	30000	0.062732733
842.1656635	0.400	30000	0.073098932
873.0602059	0.400	30000	0.084564494
902.5294058	0.400	30000	0.097194612
930.5643025	0.400	30000	0.111056181
957.1564702	0.400	30000	0.126217797
982.2980112	0.400	30000	0.142749758
1005.981546	0.400	30000	0.160724066
1028.2002	0.400	30000	0.180214422
1048.947592	0.400	30000	0.201296232
1068.21782	0.400	30000	0.224046602
1086.005437	0.400	30000	0.248544342
1102.305443	0.400	30000	0.274869962
261.862645	0.600	30000	0.001442804
311.9459673	0.600	30000	0.002669624
361.0143617	0.600	30000	0.004301312
408.9977352	0.600	30000	0.006380734
455.8365676	0.600	30000	0.008952449
501.4794069	0.600	30000	0.012062713
545.8810515	0.600	30000	0.015759473
589.00123	0.600	30000	0.020092372
630.8036499	0.600	30000	0.025112748
671.2553277	0.600	30000	0.03087363
710.3261375	0.600	30000	0.037429745
747.988535	0.600	30000	0.044837512
784.2174244	0.600	30000	0.053155045
818.8841662	0.600	30000	0.062442151
851.6961557	0.600	30000	0.072760332
883.0923029	0.600	30000	0.084172785
913.0631077	0.600	30000	0.0967444
941.5996092	0.600	30000	0.110541761
968.6933818	0.600	30000	0.125633147
994.3365276	0.600	30000	0.142088531
1018.521667	0.600	30000	0.159979581
1041.241926	0.600	30000	0.179379656
1062.490924	0.600	30000	0.200363814
1082.262755	0.600	30000	0.223008803
1100.551978	0.600	30000	0.247393067
1117.353588	0.600	30000	0.273596745
264.676733	0.773	30000	0.001449438
315.1664871	0.773	30000	0.0026819
364.6335622	0.773	30000	0.004321091
413.0177648	0.773	30000	0.006410074
460.2673423	0.773	30000	0.008993614
506.33709	0.773	30000	0.012118179
551.1869324	0.773	30000	0.015831938
594.7808575	0.773	30000	0.020184761
637.0861163	0.773	30000	0.025228221
678.072626	0.773	30000	0.031015593
717.7125338	0.773	30000	0.037601854
755.9799081	0.773	30000	0.045043684
792.8505336	0.773	30000	0.053399462
828.3017929	0.773	30000	0.062729272
862.3126211	0.773	30000	0.073094898
894.8635235	0.773	30000	0.084559828
925.5734061	0.773	30000	0.097189249
954.7056361	0.773	30000	0.111050053
982.3951372	0.773	30000	0.126210832
1008.634012	0.773	30000	0.142741881
1033.414879	0.773	30000	0.160715197
1056.730867	0.773	30000	0.180204478
1078.575593	0.773	30000	0.201285125
1098.943153	0.773	30000	0.22403424
1117.828104	0.773	30000	0.248530627
1135.225443	0.773	30000	0.274854794
255.7327533	0.250	37500	0.001797718
304.9852503	0.250	37500	0.003326324
353.1168109	0.250	37500	0.005359389
400.0142	0.250	37500	0.007950327
445.5873312	0.250	37500	0.011154657
489.7641239	0.250	37500	0.015030012
532.4435604	0.250	37500	0.019636135
573.1275418	0.250	37500	0.025034881
612.455235	0.250	37500	0.031290216
650.4123155	0.250	37500	0.038468214
686.9850486	0.250	37500	0.046637064
722.1603067	0.250	37500	0.055867062
755.9255837	0.250	37500	0.066230619
788.2690029	0.250	37500	0.077802254
819.1793224	0.250	37500	0.090658598
848.6459345	0.250	37500	0.104878393
876.6588626	0.250	37500	0.120542491
903.2087538	0.250	37500	0.137733855
928.2868683	0.250	37500	0.156537562
951.8850665	0.250	37500	0.177040795
973.995793	0.250	37500	0.199332852
994.6120587	0.250	37500	0.223505139
1013.727422	0.250	37500	0.249651176
1031.335966	0.250	37500	0.27786659
1047.432279	0.250	37500	0.308249124
1062.011431	0.250	37500	0.340898627
256.5405847	0.400	37500	0.001780589
305.9400853	0.400	37500	0.003294629
354.2438995	0.400	37500	0.005308323
401.3428725	0.400	37500	0.007874573
447.149067	0.400	37500	0.011048371
491.5907917	0.400	37500	0.0148868
534.6096865	0.400	37500	0.019449035
575.9061206	0.400	37500	0.02479634
615.465362	0.400	37500	0.030992071
653.6539908	0.400	37500	0.038101674
690.4582721	0.400	37500	0.046192688
725.8650785	0.400	37500	0.05533474
759.8619037	0.400	37500	0.065599549
792.4368712	0.400	37500	0.077060925
823.5787389	0.400	37500	0.089794769
853.2768992	0.400	37500	0.103879072
881.5213755	0.400	37500	0.119393917
908.3028149	0.400	37500	0.136421476
933.6124777	0.400	37500	0.155046013
957.4422242	0.400	37500	0.175353884
979.7844989	0.400	37500	0.197433534
1000.632313	0.400	37500	0.221375499
1019.979224	0.400	37500	0.247272406
1037.819316	0.400	37500	0.275218974
1054.147178	0.400	37500	0.305312011
1068.957878	0.400	37500	0.337650417
258.2863956	0.600	37500	0.001754902
307.9773421	0.600	37500	0.0032471
356.6112205	0.600	37500	0.005231744
404.087896	0.600	37500	0.007760972
450.3251621	0.600	37500	0.010888984
495.2543225	0.600	37500	0.014672039
538.8173522	0.600	37500	0.019168457
580.9651634	0.600	37500	0.02443862
621.6399816	0.600	37500	0.03054497
660.3035812	0.600	37500	0.037552008
697.5828332	0.600	37500	0.045526299
733.4646103	0.600	37500	0.054536465
767.9364063	0.600	37500	0.06465319
800.9863445	0.600	37500	0.075949221
832.6031829	0.600	37500	0.088499363
862.776314	0.600	37500	0.102380482
891.4957611	0.600	37500	0.117671504
918.7521712	0.600	37500	0.134453419
944.5368047	0.600	37500	0.152809273
968.8415219	0.600	37500	0.172824176
991.6587674	0.600	37500	0.194585298
1012.981552	0.600	37500	0.218181869
1032.803434	0.600	37500	0.24370518
1051.118497	0.600	37500	0.271248582
1067.921329	0.600	37500	0.300907488
1083.207	0.600	37500	0.332779371
260.5222021	0.773	37500	0.001740327
310.5558976	0.773	37500	0.003220132
359.5590792	0.773	37500	0.005188293
407.4425736	0.773	37500	0.007696516
454.1319729	0.773	37500	0.010798549
499.5639861	0.773	37500	0.014550186
543.6839435	0.773	37500	0.019009261
586.4441138	0.773	37500	0.024235655
627.8026167	0.773	37500	0.03029129
667.7227861	0.773	37500	0.037240134
706.0442825	0.773	37500	0.045148197
742.4901563	0.773	37500	0.054083533
777.5260489	0.773	37500	0.064116238
811.1400837	0.773	37500	0.075318454
843.3210188	0.773	37500	0.087764365
874.0582465	0.773	37500	0.1015302
903.3417902	0.773	37500	0.116694229
931.1622969	0.773	37500	0.133336767
957.5110271	0.773	37500	0.151540174
982.3798409	0.773	37500	0.171388851
1005.761183	0.773	37500	0.192969245
1027.648064	0.773	37500	0.216369843
1048.034043	0.773	37500	0.24168118
1066.913202	0.773	37500	0.268995831
1084.280131	0.773	37500	0.298408416
1100.129899	0.773	37500	0.330015599

