VARIABLES = "powerdemand","mach", "altitude", "efficiency",
ZONE T = "FCmapR2_Eff", I = 26, J = 4, K = 5	
258.8953423	0.250	0	0.664
307.4156847	0.250	0	0.657
354.7716182	0.250	0	0.650
400.9353305	0.250	0	0.642
445.8813888	0.250	0	0.635
489.5865376	0.250	0	0.628
532.0295204	0.250	0	0.620
573.1909177	0.250	0	0.612
613.0530005	0.250	0	0.604
651.5995942	0.250	0	0.597
688.8159523	0.250	0	0.589
724.6886389	0.250	0	0.581
759.2054172	0.250	0	0.572
792.3551457	0.250	0	0.564
824.1276803	0.250	0	0.556
854.5137818	0.250	0	0.548
883.5050299	0.250	0	0.539
912.4081734	0.250	0	0.532
940.1918696	0.250	0	0.524
966.7129068	0.250	0	0.516
991.9639161	0.250	0	0.509
1015.937638	0.250	0	0.501
1038.626919	0.250	0	0.493
1060.024707	0.250	0	0.485
1080.124056	0.250	0	0.477
1098.918123	0.250	0	0.470
260.8647015	0.400	0	0.669
309.7271103	0.400	0	0.662
357.4117773	0.400	0	0.654
403.892099	0.400	0	0.647
449.1436999	0.400	0	0.640
493.1442648	0.400	0	0.632
535.8733864	0.400	0	0.624
577.312426	0.400	0	0.617
617.4443836	0.400	0	0.609
656.2537759	0.400	0	0.601
693.7265213	0.400	0	0.593
729.8498297	0.400	0	0.585
764.6120989	0.400	0	0.576
798.0028145	0.400	0	0.568
830.0124558	0.400	0	0.560
860.632406	0.400	0	0.552
889.8548673	0.400	0	0.543
918.9872114	0.400	0	0.535
946.9987197	0.400	0	0.528
973.746805	0.400	0	0.520
999.2247219	0.400	0	0.512
1023.425833	0.400	0	0.505
1046.343603	0.400	0	0.497
1067.971595	0.400	0	0.489
1088.303468	0.400	0	0.481
1107.332977	0.400	0	0.473
264.9730748	0.600	0	0.679
314.5608306	0.600	0	0.672
362.9450017	0.600	0	0.665
410.1009306	0.600	0	0.657
456.0059532	0.600	0	0.649
500.6392842	0.600	0	0.642
543.9819073	0.600	0	0.634
586.016471	0.600	0	0.626
626.7271865	0.600	0	0.618
666.0997284	0.600	0	0.610
704.1211373	0.600	0	0.602
740.7797238	0.600	0	0.593
776.0649751	0.600	0	0.585
809.9674634	0.600	0	0.577
842.4787569	0.600	0	0.568
873.5913342	0.600	0	0.560
903.2985016	0.600	0	0.551
932.9087446	0.600	0	0.544
961.3924684	0.600	0	0.536
988.608218	0.600	0	0.528
1014.550388	0.600	0	0.520
1039.213487	0.600	0	0.512
1062.592128	0.600	0	0.504
1084.681021	0.600	0	0.497
1105.474972	0.600	0	0.489
1124.968874	0.600	0	0.481
269.9556835	0.773	0	0.692
320.4416943	0.773	0	0.685
369.696332	0.773	0	0.677
417.6964887	0.773	0	0.669
464.4208687	0.773	0	0.661
509.8499155	0.773	0	0.653
553.9657391	0.773	0	0.645
596.7520398	0.773	0	0.637
638.1940307	0.773	0	0.629
678.2783575	0.773	0	0.621
716.9930158	0.773	0	0.613
754.3272679	0.773	0	0.604
790.271558	0.773	0	0.596
824.8174273	0.773	0	0.587
857.9574302	0.773	0	0.579
889.6850515	0.773	0	0.570
919.9946253	0.773	0	0.562
950.1956876	0.773	0	0.554
979.2597155	0.773	0	0.546
1007.046348	0.773	0	0.538
1033.551092	0.773	0	0.530
1058.769586	0.773	0	0.522
1082.697587	0.773	0	0.514
1105.330964	0.773	0	0.506
1126.665687	0.773	0	0.498
1146.697823	0.773	0	0.490
250.2306424	0.250	10000	0.641
297.4802679	0.250	10000	0.635
343.7095933	0.250	10000	0.629
388.890266	0.250	10000	0.623
432.9971033	0.250	10000	0.617
476.0075048	0.250	10000	0.610
517.9009748	0.250	10000	0.603
558.6587322	0.250	10000	0.597
598.2633937	0.250	10000	0.590
636.6987153	0.250	10000	0.583
673.9493836	0.250	10000	0.576
710.0008471	0.250	10000	0.569
744.8391819	0.250	10000	0.562
778.4509858	0.250	10000	0.554
810.8232961	0.250	10000	0.547
841.9435274	0.250	10000	0.540
871.7994264	0.250	10000	0.532
900.3790404	0.250	10000	0.525
927.6706988	0.250	10000	0.517
953.6630034	0.250	10000	0.509
978.3448287	0.250	10000	0.502
1001.705329	0.250	10000	0.494
1023.733954	0.250	10000	0.486
1044.420463	0.250	10000	0.478
1063.754959	0.250	10000	0.470
1081.727908	0.250	10000	0.462
251.8708554	0.400	10000	0.646
299.3852954	0.400	10000	0.640
345.8663686	0.400	10000	0.633
391.2879869	0.400	10000	0.627
435.6268868	0.400	10000	0.620
478.8621236	0.400	10000	0.614
520.9746556	0.400	10000	0.607
561.9470022	0.400	10000	0.600
601.7629634	0.400	10000	0.593
640.407389	0.400	10000	0.586
677.8659907	0.400	10000	0.579
714.1251891	0.400	10000	0.572
749.1719901	0.400	10000	0.565
782.993887	0.400	10000	0.558
815.5787823	0.400	10000	0.550
846.9149285	0.400	10000	0.543
876.9908824	0.400	10000	0.535
905.7954727	0.400	10000	0.528
933.317778	0.400	10000	0.520
959.5471139	0.400	10000	0.512
984.4730266	0.400	10000	0.505
1008.085294	0.400	10000	0.497
1030.373934	0.400	10000	0.489
1051.329213	0.400	10000	0.481
1070.941661	0.400	10000	0.473
1089.202095	0.400	10000	0.465
255.3215012	0.600	10000	0.655
303.4049288	0.600	10000	0.648
350.4281358	0.600	10000	0.642
396.3689595	0.600	10000	0.635
441.2074959	0.600	10000	0.628
484.9257236	0.600	10000	0.622
527.5071888	0.600	10000	0.615
568.9367422	0.600	10000	0.608
609.2003188	0.600	10000	0.601
648.284755	0.600	10000	0.594
686.1776359	0.600	10000	0.586
722.8671694	0.600	10000	0.579
758.3420835	0.600	10000	0.572
792.5915414	0.600	10000	0.564
825.6050738	0.600	10000	0.557
857.3725243	0.600	10000	0.549
887.8840074	0.600	10000	0.542
917.1298746	0.600	10000	0.534
945.1006905	0.600	10000	0.527
971.7872144	0.600	10000	0.519
997.1803886	0.600	10000	0.511
1021.271331	0.600	10000	0.503
1044.051334	0.600	10000	0.496
1065.511861	0.600	10000	0.488
1085.644554	0.600	10000	0.480
1104.441238	0.600	10000	0.472
259.5520722	0.773	10000	0.665
308.3529336	0.773	10000	0.659
356.0625727	0.773	10000	0.652
402.6623906	0.773	10000	0.645
448.1355713	0.773	10000	0.638
492.4668114	0.773	10000	0.631
535.6420898	0.773	10000	0.624
577.6484708	0.773	10000	0.617
618.4739375	0.773	10000	0.610
658.1072488	0.773	10000	0.603
696.5378203	0.773	10000	0.595
733.7556224	0.773	10000	0.588
769.7510962	0.773	10000	0.580
804.5150827	0.773	10000	0.573
838.0387647	0.773	10000	0.565
870.3136189	0.773	10000	0.558
901.3313762	0.773	10000	0.550
931.0839911	0.773	10000	0.542
959.5636153	0.773	10000	0.535
986.7625785	0.773	10000	0.527
1012.673373	0.773	10000	0.519
1037.28864	0.773	10000	0.511
1060.601164	0.773	10000	0.503
1082.603864	0.773	10000	0.496
1103.289793	0.773	10000	0.488
1122.652132	0.773	10000	0.480
246.6089536	0.250	20000	0.632
293.5242784	0.250	20000	0.627
339.4766429	0.250	20000	0.622
384.4184212	0.250	20000	0.616
428.3084216	0.250	20000	0.610
471.1104832	0.250	20000	0.604
512.7924032	0.250	20000	0.598
553.3251147	0.250	20000	0.591
592.6820567	0.250	20000	0.584
630.8386914	0.250	20000	0.578
667.7721413	0.250	20000	0.571
703.4609195	0.250	20000	0.564
737.8847368	0.250	20000	0.556
771.0243734	0.250	20000	0.549
802.8616023	0.250	20000	0.542
833.3791597	0.250	20000	0.534
862.5607529	0.250	20000	0.526
890.3911041	0.250	20000	0.519
916.5101378	0.250	20000	0.511
941.189038	0.250	20000	0.503
964.529031	0.250	20000	0.495
986.5236992	0.250	20000	0.486
1007.167031	0.250	20000	0.478
1026.45341	0.250	20000	0.470
1044.377609	0.250	20000	0.462
1060.934775	0.250	20000	0.453
247.8927006	0.400	20000	0.635
294.9981013	0.400	20000	0.630
341.1323886	0.400	20000	0.625
386.2513918	0.400	20000	0.619
430.3167136	0.400	20000	0.613
473.2945057	0.400	20000	0.607
515.154523	0.400	20000	0.600
555.8693899	0.400	20000	0.594
595.4140309	0.400	20000	0.587
633.7652297	0.400	20000	0.580
670.90129	0.400	20000	0.573
706.8017796	0.400	20000	0.566
741.4473405	0.400	20000	0.559
774.8195553	0.400	20000	0.552
806.9008587	0.400	20000	0.544
837.6744898	0.400	20000	0.537
867.1244762	0.400	20000	0.529
895.235649	0.400	20000	0.522
921.9936824	0.400	20000	0.514
947.1762803	0.400	20000	0.506
970.7657417	0.400	20000	0.498
993.0098784	0.400	20000	0.490
1013.902678	0.400	20000	0.481
1033.438526	0.400	20000	0.473
1051.612193	0.400	20000	0.465
1068.418828	0.400	20000	0.456
250.6254595	0.600	20000	0.642
298.1437187	0.600	20000	0.637
344.6711489	0.600	20000	0.631
390.1699222	0.600	20000	0.625
434.6068348	0.600	20000	0.619
477.9523842	0.600	20000	0.613
520.1800412	0.600	20000	0.606
561.2656732	0.600	20000	0.599
601.1870863	0.600	20000	0.593
639.9236629	0.600	20000	0.586
677.4560754	0.600	20000	0.579
713.7660623	0.600	20000	0.572
748.8362554	0.600	20000	0.565
782.6500489	0.600	20000	0.557
815.1915042	0.600	20000	0.550
846.4452837	0.600	20000	0.542
876.3966108	0.600	20000	0.535
905.03125	0.600	20000	0.527
932.3355075	0.600	20000	0.520
958.2962465	0.600	20000	0.512
982.9009188	0.600	20000	0.504
1006.137608	0.600	20000	0.496
1027.719391	0.600	20000	0.488
1047.766969	0.600	20000	0.480
1066.452367	0.600	20000	0.471
1083.770731	0.600	20000	0.463
254.028729	0.773	20000	0.651
302.0772444	0.773	20000	0.645
349.1082117	0.773	20000	0.639
395.0900889	0.773	20000	0.633
439.9949056	0.773	20000	0.627
483.7976026	0.773	20000	0.620
526.4754998	0.773	20000	0.613
568.0078637	0.773	20000	0.607
608.3755577	0.773	20000	0.600
647.560758	0.773	20000	0.593
685.5467247	0.773	20000	0.586
722.3176165	0.773	20000	0.579
757.8583436	0.773	20000	0.571
792.1544516	0.773	20000	0.564
825.1920306	0.773	20000	0.557
856.9576468	0.773	20000	0.549
887.4382926	0.773	20000	0.542
916.6213522	0.773	20000	0.534
944.4945802	0.773	20000	0.526
971.046093	0.773	20000	0.519
996.2643687	0.773	20000	0.511
1020.138257	0.773	20000	0.503
1042.656998	0.773	20000	0.495
1063.810243	0.773	20000	0.487
1083.588089	0.773	20000	0.479
1101.981115	0.773	20000	0.471
242.8603922	0.250	30000	0.623
289.4502046	0.250	30000	0.618
335.0788317	0.250	30000	0.614
379.6674831	0.250	30000	0.608
423.15043	0.250	30000	0.603
465.4717642	0.250	30000	0.597
506.583169	0.250	30000	0.590
546.4424031	0.250	30000	0.584
585.0123088	0.250	30000	0.577
622.2602154	0.250	30000	0.570
658.156077	0.250	30000	0.562
692.1980544	0.250	30000	0.555
724.9402679	0.250	30000	0.547
756.3722804	0.250	30000	0.539
786.4841563	0.250	30000	0.531
815.2664663	0.250	30000	0.522
842.710289	0.250	30000	0.514
868.8072097	0.250	30000	0.506
893.5493161	0.250	30000	0.498
916.9291916	0.250	30000	0.490
938.9399061	0.250	30000	0.481
959.575005	0.250	30000	0.473
978.8284957	0.250	30000	0.465
996.6948338	0.250	30000	0.456
1013.168907	0.250	30000	0.448
1028.246018	0.250	30000	0.439
243.8248992	0.400	30000	0.625
290.5559246	0.400	30000	0.621
336.330993	0.400	30000	0.616
381.0756974	0.400	30000	0.611
424.7275803	0.400	30000	0.605
467.2332021	0.400	30000	0.599
508.5460834	0.400	30000	0.593
548.6252682	0.400	30000	0.586
587.4343458	0.400	30000	0.579
624.9408175	0.400	30000	0.572
661.1157341	0.400	30000	0.565
695.8721577	0.400	30000	0.557
728.8440026	0.400	30000	0.550
760.5056465	0.400	30000	0.542
790.8471539	0.400	30000	0.534
819.8590954	0.400	30000	0.525
847.5325495	0.400	30000	0.517
873.8591017	0.400	30000	0.509
898.8308395	0.400	30000	0.501
922.4403465	0.400	30000	0.493
944.6806925	0.400	30000	0.484
965.5454228	0.400	30000	0.476
985.028545	0.400	30000	0.468
1003.124515	0.400	30000	0.459
1019.828219	0.400	30000	0.451
1035.134962	0.400	30000	0.442
245.9056888	0.600	30000	0.630
292.9371157	0.600	30000	0.626
339.0154608	0.600	30000	0.621
384.0749022	0.600	30000	0.615
428.0595467	0.600	30000	0.610
470.9210775	0.600	30000	0.604
512.6170476	0.600	30000	0.597
553.1096393	0.600	30000	0.591
592.3647719	0.600	30000	0.584
630.3514718	0.600	30000	0.577
667.0414487	0.600	30000	0.570
702.4088367	0.600	30000	0.563
736.4300695	0.600	30000	0.555
768.9843464	0.600	30000	0.548
799.7968926	0.600	30000	0.540
829.279873	0.600	30000	0.531
857.424366	0.600	30000	0.523
884.221957	0.600	30000	0.515
909.6647337	0.600	30000	0.507
933.7452796	0.600	30000	0.499
956.4566644	0.600	30000	0.490
977.7924336	0.600	30000	0.482
997.7465947	0.600	30000	0.474
1016.313603	0.600	30000	0.465
1033.488347	0.600	30000	0.457
1049.266128	0.600	30000	0.448
248.5482965	0.773	30000	0.637
295.9613887	0.773	30000	0.632
342.4141204	0.773	30000	0.627
387.8499658	0.773	30000	0.621
432.2203261	0.773	30000	0.616
475.4827511	0.773	30000	0.609
517.5996073	0.773	30000	0.603
558.5370774	0.773	30000	0.597
598.2644077	0.773	30000	0.590
636.7533487	0.773	30000	0.583
673.9777449	0.773	30000	0.576
709.9132447	0.773	30000	0.569
744.5371085	0.773	30000	0.561
777.8280971	0.773	30000	0.554
809.7664293	0.773	30000	0.546
840.3337982	0.773	30000	0.539
869.1723324	0.773	30000	0.530
896.5293503	0.773	30000	0.522
922.531554	0.773	30000	0.514
947.1715268	0.773	30000	0.506
970.4423387	0.773	30000	0.498
992.3375348	0.773	30000	0.489
1012.851123	0.773	30000	0.481
1031.977558	0.773	30000	0.472
1049.711729	0.773	30000	0.464
1066.048937	0.773	30000	0.455
240.1493303	0.250	37500	0.616
286.4005595	0.250	37500	0.612
331.599158	0.250	37500	0.607
375.6387909	0.250	37500	0.602
418.4348614	0.250	37500	0.596
459.9196812	0.250	37500	0.589
499.9983882	0.250	37500	0.583
538.2032359	0.250	37500	0.575
575.1344426	0.250	37500	0.567
610.7785569	0.250	37500	0.559
645.1226807	0.250	37500	0.551
678.1544867	0.250	37500	0.543
709.8622306	0.250	37500	0.535
740.2347596	0.250	37500	0.527
769.2615168	0.250	37500	0.519
796.9325408	0.250	37500	0.511
823.238463	0.250	37500	0.502
848.1705005	0.250	37500	0.494
871.720446	0.250	37500	0.486
893.880656	0.250	37500	0.477
914.6440353	0.250	37500	0.469
934.0040208	0.250	37500	0.460
951.954563	0.250	37500	0.452
968.4901065	0.250	37500	0.443
983.605569	0.250	37500	0.435
997.2963207	0.250	37500	0.426
240.9079355	0.400	37500	0.618
287.2972103	0.400	37500	0.614
332.6575659	0.400	37500	0.609
376.886499	0.400	37500	0.604
419.9014307	0.400	37500	0.598
461.6350385	0.400	37500	0.592
502.0325184	0.400	37500	0.585
540.8124983	0.400	37500	0.578
577.9611435	0.400	37500	0.570
613.8226963	0.400	37500	0.562
648.3842587	0.400	37500	0.554
681.6335032	0.400	37500	0.546
713.5586856	0.400	37500	0.538
744.1486532	0.400	37500	0.530
773.3928488	0.400	37500	0.522
801.2813114	0.400	37500	0.514
827.8046721	0.400	37500	0.505
852.9541481	0.400	37500	0.497
876.7215322	0.400	37500	0.489
899.0991807	0.400	37500	0.480
920.0799985	0.400	37500	0.472
939.6574225	0.400	37500	0.463
957.8254033	0.400	37500	0.455
974.5783853	0.400	37500	0.446
989.9112864	0.400	37500	0.438
1003.819477	0.400	37500	0.429
242.5473629	0.600	37500	0.622
289.2103241	0.600	37500	0.618
334.880631	0.600	37500	0.613
379.4642507	0.600	37500	0.608
422.8839862	0.600	37500	0.602
465.0753271	0.600	37500	0.596
505.9837844	0.600	37500	0.590
545.5632614	0.600	37500	0.583
583.7595043	0.600	37500	0.576
620.0670848	0.600	37500	0.568
655.0746749	0.600	37500	0.560
688.7699472	0.600	37500	0.552
721.1411574	0.600	37500	0.544
752.1771527	0.600	37500	0.536
781.8673761	0.600	37500	0.527
810.2018664	0.600	37500	0.519
837.1712549	0.600	37500	0.511
862.7667587	0.600	37500	0.503
886.9801705	0.600	37500	0.494
909.8038467	0.600	37500	0.486
931.2306923	0.600	37500	0.477
951.2541441	0.600	37500	0.469
969.8681526	0.600	37500	0.460
987.0671623	0.600	37500	0.452
1002.846091	0.600	37500	0.443
1017.200309	0.600	37500	0.435
244.6469276	0.773	37500	0.627
291.6317518	0.773	37500	0.623
337.648858	0.773	37500	0.618
382.6145065	0.773	37500	0.613
426.4588237	0.773	37500	0.607
469.1223755	0.773	37500	0.601
510.5538233	0.773	37500	0.595
550.7083445	0.773	37500	0.588
589.5466108	0.773	37500	0.581
627.0341904	0.773	37500	0.574
663.0205144	0.773	37500	0.567
697.2455093	0.773	37500	0.559
730.1464421	0.773	37500	0.551
761.71216	0.773	37500	0.542
791.932106	0.773	37500	0.534
820.796319	0.773	37500	0.526
848.2954301	0.773	37500	0.518
874.4206565	0.773	37500	0.509
899.1637909	0.773	37500	0.501
922.5171898	0.773	37500	0.493
944.473758	0.773	37500	0.484
965.0269324	0.773	37500	0.476
984.1706636	0.773	37500	0.467
1001.899396	0.773	37500	0.459
1018.208047	0.773	37500	0.450
1033.091988	0.773	37500	0.441
			
