VARIABLES =  "powerdemand","mach", "altitude", "drag"
ZONE T = "FCmapR2_Drag", I = 10, J = 4, K = 5
95.17692339	0.25	0	0.000264187
192.3550514	0.25	0	0.000440427
290.0647479	0.25	0	0.000503576
390.7037182	0.25	0	0.000408474
496.0880118	0.25	0	0.000102899
605.2935094	0.25	0	-0.000477744
719.9820084	0.25	0	-0.001495288
840.6745786	0.25	0	-0.003151298
968.8037362	0.25	0	-0.005826562
1101.70285	0.25	0	-0.010134896
96.87568411	0.4	0	0.000456685
195.8237845	0.4	0	0.000847563
295.401085	0.4	0	0.001159496
397.9599044	0.4	0	0.001346105
505.317099	0.4	0	0.001362433
616.5230438	0.4	0	0.001147813
733.3608126	0.4	0	0.00057604
856.3183753	0.4	0	-0.000544119
986.845822	0.4	0	-0.002561002
1122.216676	0.4	0	-0.006057527
100.2266536	0.6	0	0.00071919
202.6695233	0.6	0	0.001403963
305.9397142	0.6	0	0.002058108
412.3005635	0.6	0	0.00263371
523.571786	0.6	0	0.003095878
638.7543816	0.6	0	0.003389119
759.8754256	0.6	0	0.003435805
887.3511448	0.6	0	0.003056851
1022.673359	0.6	0	0.001943822
1162.974036	0.6	0	-0.000455456
103.9972485	0.773	0	0.000954499
210.3787145	0.773	0	0.001904152
317.8207649	0.773	0	0.002868772
428.4878334	0.773	0	0.003799431
544.2054562	0.773	0	0.004670806
663.9214588	0.773	0	0.005432303
789.9445123	0.773	0	0.006050785
922.6065183	0.773	0	0.006357018
1063.450418	0.773	0	0.006075479
1209.409281	0.773	0	0.004671471
95.75512432	0.25	10000	0.000224385
193.3841895	0.25	10000	0.000306837
293.4650127	0.25	10000	0.00020652
397.158097	0.25	10000	-0.000135056
506.5652989	0.25	10000	-0.000791116
620.4619144	0.25	10000	-0.001846069
740.2942351	0.25	10000	-0.003537011
865.8530632	0.25	10000	-0.006132306
997.2777722	0.25	10000	-0.010160326
1129.506031	0.25	10000	-0.016488869
97.43642452	0.4	10000	0.000406334
196.7808616	0.4	10000	0.000690284
298.6666484	0.4	10000	0.000825851
404.184299	0.4	10000	0.000749855
515.4467995	0.4	10000	0.000396703
631.2025298	0.4	10000	-0.000315893
753.0120433	0.4	10000	-0.001592867
880.6239339	0.4	10000	-0.003694767
1014.181894	0.4	10000	-0.007122627
1148.509172	0.4	10000	-0.012720339
100.7466795	0.6	10000	0.000653577
203.4714845	0.6	10000	0.00121272
308.9188003	0.6	10000	0.001672018
418.04143	0.6	10000	0.001961786
532.9749358	0.6	10000	0.002026619
652.4146558	0.6	10000	0.001786399
778.1472252	0.6	10000	0.001078917
909.8342357	0.6	10000	-0.000349187
1047.61975	0.6	10000	-0.002969172
1186.07433	0.6	10000	-0.007607973
104.4602459	0.773	10000	0.000873878
210.9829041	0.773	10000	0.001679768
320.4402128	0.773	10000	0.002431277
433.6308406	0.773	10000	0.00305297
552.7171306	0.773	10000	0.003498639
676.3376621	0.773	10000	0.003689709
806.5258823	0.773	10000	0.003501656
942.8536507	0.773	10000	0.002684764
1085.439006	0.773	10000	0.000787625
1228.494045	0.773	10000	-0.003020201
96.41386672	0.25	20000	0.000170949
195.9093665	0.25	20000	0.000118872
298.2466102	0.25	20000	-0.000221503
405.5858546	0.25	20000	-0.000922407
519.4968547	0.25	20000	-0.002083655
638.2625723	0.25	20000	-0.003809169
762.7381231	0.25	20000	-0.006439773
891.2426545	0.25	20000	-0.010342508
1021.222399	0.25	20000	-0.016275337
1136.600914	0.25	20000	-0.024521597
98.05899723	0.4	20000	0.000341723
199.2263828	0.4	20000	0.000480098
303.289891	0.4	20000	0.000361201
412.3527268	0.4	20000	-9.04119E-05
527.9905762	0.4	20000	-0.000968316
648.4580021	0.4	20000	-0.002375841
774.7133054	0.4	20000	-0.004624836
905.0241945	0.4	20000	-0.008076613
1036.797138	0.4	20000	-0.01346705
1154.59739	0.4	20000	-0.021190105
101.2925188	0.6	20000	0.000573197
205.7484493	0.6	20000	0.000971338
313.2109972	0.6	20000	0.001156143
425.6709611	0.6	20000	0.001047443
544.7155713	0.6	20000	0.000559529
668.5450755	0.6	20000	-0.000411411
798.3099807	0.6	20000	-0.002140176
932.1790149	0.6	20000	-0.004985642
1067.449927	0.6	20000	-0.009666128
1190.140689	0.6	20000	-0.016903462
104.9102562	0.773	20000	0.000778485
213.0500276	0.773	20000	0.001408609
324.3268559	0.773	20000	0.001866423
440.6054854	0.773	20000	0.002067352
563.4878202	0.773	20000	0.001932319
691.1045438	0.773	20000	0.001355953
824.8290194	0.773	20000	9.46589E-05
962.6981442	0.773	20000	-0.002213381
1101.850684	0.773	20000	-0.006281071
1230.250898	0.773	20000	-0.013394217
97.7272208	0.25	30000	0.000102121
198.3625535	0.25	30000	-0.000152211
303.4627906	0.25	30000	-0.000870572
413.6914842	0.25	30000	-0.002139643
530.4276397	0.25	30000	-0.004100235
650.9448675	0.25	30000	-0.00689214
774.2638217	0.25	30000	-0.011037334
894.7932375	0.25	30000	-0.017009388
1003.487465	0.25	30000	-0.025558562
1095.949368	0.25	30000	-0.037811041
99.34363267	0.4	30000	0.000267959
201.6042496	0.4	30000	0.00019806
308.3825556	0.4	30000	-0.000303695
420.2595333	0.4	30000	-0.001330545
538.6269664	0.4	30000	-0.003016993
660.7289366	0.4	30000	-0.005503559
785.6697164	0.4	30000	-0.009285736
907.9687408	0.4	30000	-0.014868835
1018.49651	0.4	30000	-0.023145619
1112.67626	0.4	30000	-0.034368325
102.517655	0.6	30000	0.000492708
207.9714891	0.6	30000	0.00067474
318.0490524	0.6	30000	0.000470579
433.1681575	0.6	30000	-0.000222765
554.7458262	0.6	30000	-0.001532527
679.9590705	0.6	30000	-0.003602714
808.0757169	0.6	30000	-0.006897453
933.9251545	0.6	30000	-0.012023326
1048.044935	0.6	30000	-0.02037659
1144.797255	0.6	30000	-0.029725416
106.0635122	0.773	30000	0.000691756
215.088042	0.773	30000	0.001098632
328.8595009	0.773	30000	0.001161729
447.6122481	0.773	30000	0.000768726
572.7880819	0.773	30000	-0.000202282
701.4837002	0.773	30000	-0.001900648
833.1372812	0.773	30000	-0.004767054
963.0889748	0.773	30000	-0.009580722
1081.214554	0.773	30000	-0.020131796
1182.247122	0.773	30000	-0.02554782
98.41561084	0.25	37000	3.36017E-05
199.8814639	0.25	37000	-0.000428507
305.6174407	0.25	37000	-0.001529855
416.0450561	0.25	37000	-0.003366774
531.703715	0.25	37000	-0.006111389
648.7732944	0.25	37000	-0.009937281
763.2160668	0.25	37000	-0.015404579
865.0679584	0.25	37000	-0.021680823
973.4994989	0.25	37000	-0.030540169
1079.456661	0.25	37000	-0.037899731
100.0021793	0.4	37000	0.000196166
203.066376	0.4	37000	-8.42662E-05
310.4471717	0.4	37000	-0.000972506
422.4871618	0.4	37000	-0.002571723
539.737391	0.4	37000	-0.00504892
658.3458734	0.4	37000	-0.008579172
774.3771514	0.4	37000	-0.013706033
877.9631618	0.4	37000	-0.019719936
987.9265318	0.4	37000	-0.02786459
1095.250437	0.4	37000	-0.034547767
103.1158319	0.6	37000	0.000416622
209.3178394	0.6	37000	0.000384947
319.9285399	0.6	37000	-0.000209685
435.1337142	0.6	37000	-0.001481053
555.5061903	0.6	37000	-0.00359121
677.1183226	0.6	37000	-0.006720956
796.3274718	0.6	37000	-0.011429072
931.9719723	0.6	37000	-0.019030887
1048.512858	0.6	37000	-0.023511132
1150.925972	0.6	37000	-0.029284829
106.591198	0.773	37000	0.000611837
216.2977124	0.773	37000	0.000802306
330.5179349	0.773	37000	0.000471401
449.2611064	0.773	37000	-0.000505191
573.1130422	0.773	37000	-0.002287058
698.0591276	0.773	37000	-0.005063376
820.9206344	0.773	37000	-0.009473152
931.6819521	0.773	37000	-0.016342292
1047.870108	0.773	37000	-0.020998144
1160.48995	0.773	37000	-0.025981536

