VARIABLES = "powerdemand","mach", "altitude", "efficiency",
ZONE T = "FCmapR2_1214_eff", I = 26, J = 4, K = 5	
275.6952044	0.250	0	0.664	1
327.3640587	0.250	0	0.657	1
377.7929449	0.250	0	0.650	1
426.9522461	0.250	0	0.642	1
474.8148789	0.250	0	0.635	1
521.356079	0.250	0	0.628	1
566.5532104	0.250	0	0.620	1
610.3855936	0.250	0	0.612	1
652.8343491	0.250	0	0.604	1
693.8822525	0.250	0	0.597	1
733.5136008	0.250	0	0.589	1
771.7140858	0.250	0	0.581	1
808.4706769	0.250	0	0.572	1
843.7715097	0.250	0	0.564	1
877.6057817	0.250	0	0.556	1
909.9636541	0.250	0	0.548	1
940.8361603	0.250	0	0.539	1
971.6148448	0.250	0	0.532	1
1001.20144	0.250	0	0.524	1
1029.443442	0.250	0	0.516	1
1056.333004	0.250	0	0.509	1
1081.862394	0.250	0	0.501	1
1106.023994	0.250	0	0.493	1
1128.810297	0.250	0	0.485	1
1150.213904	0.250	0	0.477	1
1170.227529	0.250	0	0.470	1
277.7923564	0.400	0	0.669	1
329.8254739	0.400	0	0.662	1
380.6044254	0.400	0	0.654	1
430.1008809	0.400	0	0.647	1
478.2888833	0.400	0	0.640	1
525.1446691	0.400	0	0.632	1
570.6465071	0.400	0	0.624	1
614.7745489	0.400	0	0.617	1
657.5106914	0.400	0	0.609	1
698.8384467	0.400	0	0.601	1
738.7428193	0.400	0	0.593	1
777.2101892	0.400	0	0.585	1
814.2282012	0.400	0	0.576	1
849.7856588	0.400	0	0.568	1
883.8724235	0.400	0	0.560	1
916.4793192	0.400	0	0.552	1
947.5980422	0.400	0	0.543	1
978.6208002	0.400	0	0.535	1
1008.449991	0.400	0	0.528	1
1036.933774	0.400	0	0.520	1
1064.064967	0.400	0	0.512	1
1089.836502	0.400	0	0.505	1
1114.241419	0.400	0	0.497	1
1137.272863	0.400	0	0.489	1
1158.924083	0.400	0	0.481	1
1179.188427	0.400	0	0.473	1
282.1673243	0.600	0	0.679	1
334.972857	0.600	0	0.672	1
386.4967038	0.600	0	0.665	1
436.712607	0.600	0	0.657	1
485.596432	0.600	0	0.649	1
533.1260445	0.600	0	0.642	1
579.2811944	0.600	0	0.634	1
624.0434042	0.600	0	0.626	1
667.3958605	0.600	0	0.618	1
709.3233085	0.600	0	0.610	1
749.8119476	0.600	0	0.602	1
788.8493301	0.600	0	0.593	1
826.4242609	0.600	0	0.585	1
862.5267004	0.600	0	0.577	1
897.1476698	0.600	0	0.568	1
930.2791595	0.600	0	0.560	1
961.9140413	0.600	0	0.551	1
993.4457095	0.600	0	0.544	1
1023.777758	0.600	0	0.536	1
1052.759552	0.600	0	0.528	1
1080.385125	0.600	0	0.520	1
1106.648626	0.600	0	0.512	1
1131.544319	0.600	0	0.504	1
1155.066573	0.600	0	0.497	1
1177.209855	0.600	0	0.489	1
1197.968727	0.600	0	0.481	1
287.4732573	0.773	0	0.692	1
341.2353333	0.773	0	0.685	1
393.6861316	0.773	0	0.677	1
444.8010451	0.773	0	0.669	1
494.5573959	0.773	0	0.661	1
542.9343587	0.773	0	0.653	1
589.9128825	0.773	0	0.645	1
635.47561	0.773	0	0.637	1
679.6067946	0.773	0	0.629	1
722.2922155	0.773	0	0.621	1
763.5190895	0.773	0	0.613	1
803.2759819	0.773	0	0.604	1
841.5527168	0.773	0	0.596	1
878.3402867	0.773	0	0.587	1
913.6307628	0.773	0	0.579	1
947.417207	0.773	0	0.570	1
979.6935858	0.773	0	0.562	1
1011.854412	0.773	0	0.554	1
1042.804421	0.773	0	0.546	1
1072.394143	0.773	0	0.538	1
1100.618794	0.773	0	0.530	1
1127.47373	0.773	0	0.522	1
1152.954432	0.773	0	0.514	1
1177.056502	0.773	0	0.506	1
1199.775647	0.773	0	0.498	1
1221.10768	0.773	0	0.490	1
266.4682473	0.250	10000	0.641	1
316.7839271	0.250	10000	0.635	1
366.013099	0.250	10000	0.629	1
414.1255706	0.250	10000	0.623	1
461.094525	0.250	10000	0.617	1
506.8958953	0.250	10000	0.610	1
551.5078557	0.250	10000	0.603	1
594.9104066	0.250	10000	0.597	1
637.0850364	0.250	10000	0.590	1
678.0144474	0.250	10000	0.583	1
717.6823322	0.250	10000	0.576	1
756.0731951	0.250	10000	0.569	1
793.1722087	0.250	10000	0.562	1
828.9651011	0.250	10000	0.554	1
863.4380686	0.250	10000	0.547	1
896.5777089	0.250	10000	0.540	1
928.3709737	0.250	10000	0.532	1
958.8051348	0.250	10000	0.525	1
987.8677639	0.250	10000	0.517	1
1015.546724	0.250	10000	0.509	1
1041.830166	0.250	10000	0.502	1
1066.706543	0.250	10000	0.494	1
1090.164616	0.250	10000	0.486	1
1112.193485	0.250	10000	0.478	1
1132.782607	0.250	10000	0.470	1
1151.921831	0.250	10000	0.462	1
268.2148947	0.400	10000	0.646	1
318.8125729	0.400	10000	0.640	1
368.3098287	0.400	10000	0.633	1
416.678881	0.400	10000	0.627	1
463.8949566	0.400	10000	0.620	1
509.9357519	0.400	10000	0.614	1
554.7809893	0.400	10000	0.607	1
598.4120542	0.400	10000	0.600	1
640.8116952	0.400	10000	0.593	1
681.963779	0.400	10000	0.586	1
721.8530901	0.400	10000	0.579	1
760.4651679	0.400	10000	0.572	1
797.7861752	0.400	10000	0.565	1
833.8027937	0.400	10000	0.558	1
868.502141	0.400	10000	0.550	1
901.871707	0.400	10000	0.543	1
933.8993062	0.400	10000	0.535	1
964.5730423	0.400	10000	0.528	1
993.8812853	0.400	10000	0.520	1
1021.812657	0.400	10000	0.512	1
1048.356026	0.400	10000	0.505	1
1073.500507	0.400	10000	0.497	1
1097.235469	0.400	10000	0.489	1
1119.550547	0.400	10000	0.481	1
1140.435658	0.400	10000	0.473	1
1159.881022	0.400	10000	0.465	1
271.8894547	0.600	10000	0.655	1
323.0930425	0.600	10000	0.648	1
373.1676115	0.600	10000	0.642	1
422.0895607	0.600	10000	0.635	1
469.8376946	0.600	10000	0.628	1
516.3928222	0.600	10000	0.622	1
561.7374223	0.600	10000	0.615	1
605.8553623	0.600	10000	0.608	1
648.7316647	0.600	10000	0.601	1
690.3523116	0.600	10000	0.594	1
730.7040825	0.600	10000	0.586	1
769.7744202	0.600	10000	0.579	1
807.5513211	0.600	10000	0.572	1
844.0232453	0.600	10000	0.564	1
879.179044	0.600	10000	0.557	1
913.007902	0.600	10000	0.549	1
945.4992921	0.600	10000	0.542	1
976.6429398	0.600	10000	0.534	1
1006.428797	0.600	10000	0.527	1
1034.847025	0.600	10000	0.519	1
1061.887976	0.600	10000	0.511	1
1087.542194	0.600	10000	0.503	1
1111.800403	0.600	10000	0.496	1
1134.653515	0.600	10000	0.488	1
1156.09263	0.600	10000	0.480	1
1176.109042	0.600	10000	0.472	1
276.3945499	0.773	10000	0.665	1
328.3621261	0.773	10000	0.659	1
379.1676701	0.773	10000	0.652	1
428.791376	0.773	10000	0.645	1
477.2153366	0.773	10000	0.638	1
524.4232554	0.773	10000	0.631	1
570.4002015	0.773	10000	0.624	1
615.1323998	0.773	10000	0.617	1
658.6070536	0.773	10000	0.610	1
700.8121925	0.773	10000	0.603	1
741.736545	0.773	10000	0.595	1
781.3694309	0.773	10000	0.588	1
819.7006709	0.773	10000	0.580	1
856.7205117	0.773	10000	0.573	1
892.4195641	0.773	10000	0.565	1
926.7887513	0.773	10000	0.558	1
959.8192682	0.773	10000	0.550	1
991.5025466	0.773	10000	0.542	1
1021.830229	0.773	10000	0.535	1
1050.794148	0.773	10000	0.527	1
1078.386308	0.773	10000	0.519	1
1104.598874	0.773	10000	0.511	1
1129.42416	0.773	10000	0.503	1
1152.854628	0.773	10000	0.496	1
1174.882878	0.773	10000	0.488	1
1195.50165	0.773	10000	0.480	1
262.6115451	0.250	20000	0.632	1
312.5712313	0.250	20000	0.627	1
361.5054702	0.250	20000	0.622	1
409.3635453	0.250	20000	0.616	1
456.1015922	0.250	20000	0.610	1
501.6811032	0.250	20000	0.604	1
546.067786	0.250	20000	0.598	1
589.2306877	0.250	20000	0.591	1
631.1415234	0.250	20000	0.584	1
671.7741633	0.250	20000	0.578	1
711.1042452	0.250	20000	0.571	1
749.1088879	0.250	20000	0.564	1
785.7664859	0.250	20000	0.556	1
821.0565718	0.250	20000	0.549	1
854.9597361	0.250	20000	0.542	1
887.4575947	0.250	20000	0.534	1
918.5327976	0.250	20000	0.526	1
948.1690757	0.250	20000	0.519	1
975.982988	0.250	20000	0.511	1
1002.263316	0.250	20000	0.503	1
1027.117854	0.250	20000	0.495	1
1050.539768	0.250	20000	0.486	1
1072.522657	0.250	20000	0.478	1
1093.06054	0.250	20000	0.470	1
1112.14785	0.250	20000	0.462	1
1129.77942	0.250	20000	0.453	1
263.9785951	0.400	20000	0.635	1
314.1406914	0.400	20000	0.630	1
363.2686581	0.400	20000	0.625	1
411.3154584	0.400	20000	0.619	1
458.2402033	0.400	20000	0.613	1
504.0068482	0.400	20000	0.607	1
548.5831851	0.400	20000	0.600	1
591.9400623	0.400	20000	0.594	1
634.050777	0.400	20000	0.587	1
674.8906062	0.400	20000	0.580	1
714.4364461	0.400	20000	0.573	1
752.6665383	0.400	20000	0.566	1
789.5602689	0.400	20000	0.559	1
825.0980251	0.400	20000	0.552	1
859.2611021	0.400	20000	0.544	1
892.0316511	0.400	20000	0.537	1
923.3926634	0.400	20000	0.529	1
953.3279858	0.400	20000	0.522	1
981.8223628	0.400	20000	0.514	1
1008.639073	0.400	20000	0.506	1
1033.759268	0.400	20000	0.498	1
1057.446839	0.400	20000	0.490	1
1079.695384	0.400	20000	0.481	1
1100.498924	0.400	20000	0.473	1
1119.851891	0.400	20000	0.465	1
1137.749117	0.400	20000	0.456	1
266.8886843	0.600	20000	0.642	1
317.4904297	0.600	20000	0.637	1
367.0370505	0.600	20000	0.631	1
415.4882644	0.600	20000	0.625	1
462.8087129	0.600	20000	0.619	1
508.966979	0.600	20000	0.613	1
553.934812	0.600	20000	0.606	1
597.6865134	0.600	20000	0.599	1
640.1984492	0.600	20000	0.593	1
681.4486636	0.600	20000	0.586	1
721.4165751	0.600	20000	0.579	1
760.0827372	0.600	20000	0.572	1
797.4286545	0.600	20000	0.565	1
833.4366438	0.600	20000	0.557	1
868.0897321	0.600	20000	0.550	1
901.3715867	0.600	20000	0.542	1
933.266472	0.600	20000	0.535	1
963.7592288	0.600	20000	0.527	1
992.8352746	0.600	20000	0.520	1
1020.48062	0.600	20000	0.512	1
1046.681904	0.600	20000	0.504	1
1071.426434	0.600	20000	0.496	1
1094.408672	0.600	20000	0.488	1
1115.757148	0.600	20000	0.480	1
1135.655051	0.600	20000	0.471	1
1154.097214	0.600	20000	0.463	1
270.5127939	0.773	20000	0.651	1
321.679204	0.773	20000	0.645	1
371.7620368	0.773	20000	0.639	1
420.7277035	0.773	20000	0.633	1
468.5464185	0.773	20000	0.627	1
515.1914969	0.773	20000	0.620	1
560.6387864	0.773	20000	0.613	1
604.8662084	0.773	20000	0.607	1
647.8533844	0.773	20000	0.600	1
689.5813341	0.773	20000	0.593	1
730.0322312	0.773	20000	0.586	1
769.1892064	0.773	20000	0.579	1
807.0361911	0.773	20000	0.571	1
843.5577925	0.773	20000	0.564	1
878.7391982	0.773	20000	0.557	1
912.5661028	0.773	20000	0.549	1
945.0246547	0.773	20000	0.542	1
976.1014191	0.773	20000	0.534	1
1005.783356	0.773	20000	0.526	1
1034.057811	0.773	20000	0.519	1
1060.912515	0.773	20000	0.511	1
1086.335593	0.773	20000	0.503	1
1110.315587	0.773	20000	0.495	1
1132.841478	0.773	20000	0.487	1
1153.90272	0.773	20000	0.479	1
1173.48928	0.773	20000	0.471	1
258.6197375	0.250	30000	0.623	1
308.2327886	0.250	30000	0.618	1
356.8222825	0.250	30000	0.614	1
404.3043163	0.250	30000	0.608	1
450.6088956	0.250	30000	0.603	1
495.6764847	0.250	30000	0.597	1
539.4556313	0.250	30000	0.590	1
581.9013531	0.250	30000	0.584	1
622.9740813	0.250	30000	0.577	1
662.6390252	0.250	30000	0.570	1
700.8641891	0.250	30000	0.562	1
737.1151693	0.250	30000	0.555	1
771.9820431	0.250	30000	0.547	1
805.4536963	0.250	30000	0.539	1
837.5195485	0.250	30000	0.531	1
868.1695586	0.250	30000	0.522	1
897.3942261	0.250	30000	0.514	1
925.1845904	0.250	30000	0.506	1
951.5322258	0.250	30000	0.498	1
976.4292344	0.250	30000	0.490	1
999.8682364	0.250	30000	0.481	1
1021.842358	0.250	30000	0.473	1
1042.345219	0.250	30000	0.465	1
1061.370913	0.250	30000	0.456	1
1078.913998	0.250	30000	0.448	1
1094.969472	0.250	30000	0.439	1
259.6468318	0.400	30000	0.625	1
309.4102594	0.400	30000	0.621	1
358.1556973	0.400	30000	0.616	1
405.8039103	0.400	30000	0.611	1
452.288388	0.400	30000	0.605	1
497.5522233	0.400	30000	0.599	1
541.5459202	0.400	30000	0.593	1
584.2258655	0.400	30000	0.586	1
625.5532857	0.400	30000	0.579	1
665.4935731	0.400	30000	0.572	1
704.0159001	0.400	30000	0.565	1
741.0276872	0.400	30000	0.557	1
776.1390934	0.400	30000	0.550	1
809.8552789	0.400	30000	0.542	1
842.1656635	0.400	30000	0.534	1
873.0602059	0.400	30000	0.525	1
902.5294058	0.400	30000	0.517	1
930.5643025	0.400	30000	0.509	1
957.1564702	0.400	30000	0.501	1
982.2980112	0.400	30000	0.493	1
1005.981546	0.400	30000	0.484	1
1028.2002	0.400	30000	0.476	1
1048.947592	0.400	30000	0.468	1
1068.21782	0.400	30000	0.459	1
1086.005437	0.400	30000	0.451	1
1102.305443	0.400	30000	0.442	1
261.862645	0.600	30000	0.630	1
311.9459673	0.600	30000	0.626	1
361.0143617	0.600	30000	0.621	1
408.9977352	0.600	30000	0.615	1
455.8365676	0.600	30000	0.610	1
501.4794069	0.600	30000	0.604	1
545.8810515	0.600	30000	0.597	1
589.00123	0.600	30000	0.591	1
630.8036499	0.600	30000	0.584	1
671.2553277	0.600	30000	0.577	1
710.3261375	0.600	30000	0.570	1
747.988535	0.600	30000	0.563	1
784.2174244	0.600	30000	0.555	1
818.8841662	0.600	30000	0.548	1
851.6961557	0.600	30000	0.540	1
883.0923029	0.600	30000	0.531	1
913.0631077	0.600	30000	0.523	1
941.5996092	0.600	30000	0.515	1
968.6933818	0.600	30000	0.507	1
994.3365276	0.600	30000	0.499	1
1018.521667	0.600	30000	0.490	1
1041.241926	0.600	30000	0.482	1
1062.490924	0.600	30000	0.474	1
1082.262755	0.600	30000	0.465	1
1100.551978	0.600	30000	0.457	1
1117.353588	0.600	30000	0.448	1
264.676733	0.773	30000	0.637	1
315.1664871	0.773	30000	0.632	1
364.6335622	0.773	30000	0.627	1
413.0177648	0.773	30000	0.621	1
460.2673423	0.773	30000	0.616	1
506.33709	0.773	30000	0.609	1
551.1869324	0.773	30000	0.603	1
594.7808575	0.773	30000	0.597	1
637.0861163	0.773	30000	0.590	1
678.072626	0.773	30000	0.583	1
717.7125338	0.773	30000	0.576	1
755.9799081	0.773	30000	0.569	1
792.8505336	0.773	30000	0.561	1
828.3017929	0.773	30000	0.554	1
862.3126211	0.773	30000	0.546	1
894.8635235	0.773	30000	0.539	1
925.5734061	0.773	30000	0.530	1
954.7056361	0.773	30000	0.522	1
982.3951372	0.773	30000	0.514	1
1008.634012	0.773	30000	0.506	1
1033.414879	0.773	30000	0.498	1
1056.730867	0.773	30000	0.489	1
1078.575593	0.773	30000	0.481	1
1098.943153	0.773	30000	0.472	1
1117.828104	0.773	30000	0.464	1
1135.225443	0.773	30000	0.455	1
255.7327533	0.250	37500	0.616	1
304.9852503	0.250	37500	0.612	1
353.1168109	0.250	37500	0.607	1
400.0142	0.250	37500	0.602	1
445.5873312	0.250	37500	0.596	1
489.7641239	0.250	37500	0.589	1
532.4435604	0.250	37500	0.583	1
573.1275418	0.250	37500	0.575	1
612.455235	0.250	37500	0.567	1
650.4123155	0.250	37500	0.559	1
686.9850486	0.250	37500	0.551	1
722.1603067	0.250	37500	0.543	1
755.9255837	0.250	37500	0.535	1
788.2690029	0.250	37500	0.527	1
819.1793224	0.250	37500	0.519	1
848.6459345	0.250	37500	0.511	1
876.6588626	0.250	37500	0.502	1
903.2087538	0.250	37500	0.494	1
928.2868683	0.250	37500	0.486	1
951.8850665	0.250	37500	0.477	1
973.995793	0.250	37500	0.469	1
994.6120587	0.250	37500	0.460	1
1013.727422	0.250	37500	0.452	1
1031.335966	0.250	37500	0.443	1
1047.432279	0.250	37500	0.435	1
1062.011431	0.250	37500	0.426	1
256.5405847	0.400	37500	0.618	1
305.9400853	0.400	37500	0.614	1
354.2438995	0.400	37500	0.609	1
401.3428725	0.400	37500	0.604	1
447.149067	0.400	37500	0.598	1
491.5907917	0.400	37500	0.592	1
534.6096865	0.400	37500	0.585	1
575.9061206	0.400	37500	0.578	1
615.465362	0.400	37500	0.570	1
653.6539908	0.400	37500	0.562	1
690.4582721	0.400	37500	0.554	1
725.8650785	0.400	37500	0.546	1
759.8619037	0.400	37500	0.538	1
792.4368712	0.400	37500	0.530	1
823.5787389	0.400	37500	0.522	1
853.2768992	0.400	37500	0.514	1
881.5213755	0.400	37500	0.505	1
908.3028149	0.400	37500	0.497	1
933.6124777	0.400	37500	0.489	1
957.4422242	0.400	37500	0.480	1
979.7844989	0.400	37500	0.472	1
1000.632313	0.400	37500	0.463	1
1019.979224	0.400	37500	0.455	1
1037.819316	0.400	37500	0.446	1
1054.147178	0.400	37500	0.438	1
1068.957878	0.400	37500	0.429	1
258.2863956	0.600	37500	0.622	1
307.9773421	0.600	37500	0.618	1
356.6112205	0.600	37500	0.613	1
404.087896	0.600	37500	0.608	1
450.3251621	0.600	37500	0.602	1
495.2543225	0.600	37500	0.596	1
538.8173522	0.600	37500	0.590	1
580.9651634	0.600	37500	0.583	1
621.6399816	0.600	37500	0.576	1
660.3035812	0.600	37500	0.568	1
697.5828332	0.600	37500	0.560	1
733.4646103	0.600	37500	0.552	1
767.9364063	0.600	37500	0.544	1
800.9863445	0.600	37500	0.536	1
832.6031829	0.600	37500	0.527	1
862.776314	0.600	37500	0.519	1
891.4957611	0.600	37500	0.511	1
918.7521712	0.600	37500	0.503	1
944.5368047	0.600	37500	0.494	1
968.8415219	0.600	37500	0.486	1
991.6587674	0.600	37500	0.477	1
1012.981552	0.600	37500	0.469	1
1032.803434	0.600	37500	0.460	1
1051.118497	0.600	37500	0.452	1
1067.921329	0.600	37500	0.443	1
1083.207	0.600	37500	0.435	1
260.5222021	0.773	37500	0.627	1
310.5558976	0.773	37500	0.623	1
359.5590792	0.773	37500	0.618	1
407.4425736	0.773	37500	0.613	1
454.1319729	0.773	37500	0.607	1
499.5639861	0.773	37500	0.601	1
543.6839435	0.773	37500	0.595	1
586.4441138	0.773	37500	0.588	1
627.8026167	0.773	37500	0.581	1
667.7227861	0.773	37500	0.574	1
706.0442825	0.773	37500	0.567	1
742.4901563	0.773	37500	0.559	1
777.5260489	0.773	37500	0.551	1
811.1400837	0.773	37500	0.542	1
843.3210188	0.773	37500	0.534	1
874.0582465	0.773	37500	0.526	1
903.3417902	0.773	37500	0.518	1
931.1622969	0.773	37500	0.509	1
957.5110271	0.773	37500	0.501	1
982.3798409	0.773	37500	0.493	1
1005.761183	0.773	37500	0.484	1
1027.648064	0.773	37500	0.476	1
1048.034043	0.773	37500	0.467	1
1066.913202	0.773	37500	0.459	1
1084.280131	0.773	37500	0.450	1
1100.129899	0.773	37500	0.441	1
