VARIABLES = "powerdemand","mach", "altitude", "efficiency"
ZONE T = "FCmapR2_Eff", I = 10, J = 4, K = 5
190.3538468	0.25	0	0.52942998
384.7101027	0.25	0	0.526573891
580.1294959	0.25	0	0.521162535
781.4074364	0.25	0	0.518191473
992.1760236	0.25	0	0.516950968
1210.587019	0.25	0	0.516572805
1439.964017	0.25	0	0.514633695
1681.349157	0.25	0	0.511993217
1937.607472	0.25	0	0.507967971
2203.405701	0.25	0	0.501286796
193.7513682	0.4	0	0.538879485
391.647569	0.4	0	0.536069583
590.80217	0.4	0	0.53075039
795.9198087	0.4	0	0.527815373
1010.634198	0.4	0	0.526568184
1233.046088	0.4	0	0.526156374
1466.721625	0.4	0	0.524196689
1712.636751	0.4	0	0.521520706
1973.691644	0.4	0	0.517427886
2244.433352	0.4	0	0.51062081
200.4533071	0.6	0	0.557519547
405.3390466	0.6	0	0.554809862
611.8794284	0.6	0	0.549685262
824.601127	0.6	0	0.546835431
1047.143572	0.6	0	0.545590571
1277.508763	0.6	0	0.54512916
1519.750851	0.6	0	0.543148987
1774.70229	0.6	0	0.540420489
2045.346719	0.6	0	0.536213158
2325.948072	0.6	0	0.529165853
207.9944971	0.773	0	0.578493812
420.7574289	0.773	0	0.57591385
635.6415297	0.773	0	0.571032077
856.9756667	0.773	0	0.568304654
1088.410912	0.773	0	0.567091989
1327.842918	0.773	0	0.566607381
1579.889025	0.773	0	0.564641975
1845.213037	0.773	0	0.561891951
2126.900835	0.773	0	0.557593587
2418.818562	0.773	0	0.550294395
191.5102486	0.25	10000	0.526939873
386.7683791	0.25	10000	0.526450348
586.9300255	0.25	10000	0.523614236
794.316194	0.25	10000	0.523338157
1013.130598	0.25	10000	0.524585738
1240.923829	0.25	10000	0.526416356
1480.58847	0.25	10000	0.526270103
1731.706126	0.25	10000	0.52468043
1994.555544	0.25	10000	0.520502222
2259.012063	0.25	10000	0.511676771
194.872849	0.4	10000	0.536192058
393.5617233	0.4	10000	0.535697118
597.3332969	0.4	10000	0.532895241
808.368598	0.4	10000	0.532596635
1030.893599	0.4	10000	0.533783187
1262.40506	0.4	10000	0.535528979
1506.024087	0.4	10000	0.535311106
1761.247868	0.4	10000	0.533631125
2028.363787	0.4	10000	0.529324872
2297.018343	0.4	10000	0.520285371
201.4933589	0.6	10000	0.554408371
406.942969	0.6	10000	0.55391102
617.8376006	0.6	10000	0.551187618
836.08286	0.6	10000	0.550856279
1065.949872	0.6	10000	0.551934865
1304.829312	0.6	10000	0.55352591
1556.29445	0.6	10000	0.553179535
1819.668471	0.6	10000	0.551331673
2095.239501	0.6	10000	0.546776859
2372.148659	0.6	10000	0.537302738
208.9204917	0.773	10000	0.574844104
421.9658082	0.773	10000	0.57435938
640.8804255	0.773	10000	0.571744671
867.2616813	0.773	10000	0.571398561
1105.434261	0.773	10000	0.572379364
1352.675324	0.773	10000	0.573822824
1613.051765	0.773	10000	0.573353728
1885.707301	0.773	10000	0.571340427
2170.878012	0.773	10000	0.566515599
2456.988091	0.773	10000	0.556519265
192.8277334	0.25	20000	0.527503233
391.818733	0.25	20000	0.528979716
596.4932204	0.25	20000	0.528637572
811.1717092	0.25	20000	0.531094987
1038.993709	0.25	20000	0.534878411
1276.525145	0.25	20000	0.538810619
1525.476246	0.25	20000	0.539991242
1782.485309	0.25	20000	0.538343572
2042.444797	0.25	20000	0.531814139
2273.201827	0.25	20000	0.514251527
196.1179945	0.4	20000	0.536504134
398.4527657	0.4	20000	0.537936074
606.579782	0.4	20000	0.53757671
824.7054537	0.4	20000	0.539955878
1055.981152	0.4	20000	0.54362362
1296.916004	0.4	20000	0.547417431
1549.426611	0.4	20000	0.548469241
1810.048389	0.4	20000	0.546668133
2073.594277	0.4	20000	0.539924877
2309.19478	0.4	20000	0.522393977
202.5850376	0.6	20000	0.554195501
411.4968986	0.6	20000	0.555546467
626.4219944	0.6	20000	0.555161719
851.3419222	0.6	20000	0.557395459
1089.431143	0.6	20000	0.560843818
1337.090151	0.6	20000	0.564374603
1596.619961	0.6	20000	0.565174841
1864.35803	0.6	20000	0.56307065
2134.899854	0.6	20000	0.555887694
2380.281378	0.6	20000	0.538475431
209.8205124	0.773	20000	0.573989004
426.1000553	0.773	20000	0.575261639
648.6537118	0.773	20000	0.57486441
881.2109708	0.773	20000	0.576951494
1126.97564	0.773	20000	0.580171886
1382.209088	0.773	20000	0.58341893
1649.658039	0.773	20000	0.58394937
1925.396288	0.773	20000	0.581505335
2203.701368	0.773	20000	0.573802312
2460.501795	0.773	20000	0.556623169
195.4544416	0.25	30000	0.530863043
396.7251069	0.25	30000	0.533391509
606.9255812	0.25	30000	0.534621723
827.3829684	0.25	30000	0.538676667
1060.855279	0.25	30000	0.543446124
1301.889735	0.25	30000	0.547289173
1548.527643	0.25	30000	0.546452257
1789.586475	0.25	30000	0.539345442
2006.974931	0.25	30000	0.521999244
2191.898737	0.25	30000	0.495812713
198.6872653	0.4	30000	0.539643538
403.2084991	0.4	30000	0.542108341
616.7651112	0.4	30000	0.543289057
840.5190666	0.4	30000	0.547229067
1077.253933	0.4	30000	0.55184669
1321.457873	0.4	30000	0.555515238
1571.339433	0.4	30000	0.554502197
1815.937482	0.4	30000	0.547287107
2036.99302	0.4	30000	0.529806726
2225.35252	0.4	30000	0.503380038
205.03531	0.6	30000	0.556885112
415.9429782	0.6	30000	0.559229675
636.0981047	0.6	30000	0.560318885
866.3363149	0.6	30000	0.564037667
1109.491652	0.6	30000	0.568361161
1359.918141	0.6	30000	0.571683188
1616.151434	0.6	30000	0.570315682
1867.850309	0.6	30000	0.562932591
2096.08987	0.6	30000	0.545177376
2289.59451	0.6	30000	0.517911729
212.1270245	0.773	30000	0.576146527
430.176084	0.773	30000	0.578365892
657.7190017	0.773	30000	0.579364055
895.2244962	0.773	30000	0.582845631
1145.576164	0.773	30000	0.586846235
1402.9674	0.773	30000	0.589780261
1666.274562	0.773	30000	0.588003385
1926.17795	0.773	30000	0.580511371
2162.429109	0.773	30000	0.562431719
2364.494244	0.773	30000	0.534854227
196.8312217	0.25	37000	0.534546445
399.7629278	0.25	37000	0.537018584
611.2348814	0.25	37000	0.538256142
832.0901122	0.25	37000	0.541910299
1063.40743	0.25	37000	0.545397168
1297.546589	0.25	37000	0.546571638
1526.432134	0.25	37000	0.54019929
1730.135917	0.25	37000	0.52334378
1946.998998	0.25	37000	0.508660694
2158.913321	0.25	37000	0.49103617
200.0043586	0.4	37000	0.543163925
406.132752	0.4	37000	0.54557544
620.8943434	0.4	37000	0.546762307
844.9743237	0.4	37000	0.550301321
1079.474782	0.4	37000	0.553637742
1316.691747	0.4	37000	0.554636242
1548.754303	0.4	37000	0.548099032
1755.926324	0.4	37000	0.531145046
1975.853064	0.4	37000	0.516198925
2190.500874	0.4	37000	0.498220632
206.2316639	0.6	37000	0.560075794
418.6356787	0.6	37000	0.562371155
639.8570797	0.6	37000	0.563460977
870.2674285	0.6	37000	0.566773809
1111.012381	0.6	37000	0.56981265
1354.236645	0.6	37000	0.570451456
1592.654944	0.6	37000	0.563635324
1863.943945	0.6	37000	0.561755291
2097.025716	0.6	37000	0.545420783
2301.851945	0.6	37000	0.52068439
213.1823961	0.773	37000	0.578952318
432.5954248	0.773	37000	0.581123877
661.0358698	0.773	37000	0.582111113
898.5222129	0.773	37000	0.585175131
1146.226084	0.773	37000	0.587872947
1396.118255	0.773	37000	0.588093443
1641.841269	0.773	37000	0.581042202
1863.363904	0.773	37000	0.563643527
2095.740216	0.773	37000	0.547519887
2320.9799	0.773	37000	0.527897563

