VARIABLES = "powerdemand","mach", "altitude", "efficiency"
ZONE T = "FCmapR2_Eff", I = 20, J = 4, K = 5
36.84576979	0.25	0	0.622540692
72.2790193	0.25	0	0.610607825
106.3123985	0.25	0	0.598746202
138.9682787	0.25	0	0.586996885
170.2771278	0.25	0	0.575395448
200.2762744	0.25	0	0.563973066
229.0089404	0.25	0	0.552757326
256.523459	0.25	0	0.541772816
282.8726229	0.25	0	0.531041568
308.1131252	0.25	0	0.520583392
332.3050698	0.25	0	0.510416132
355.5115356	0.25	0	0.500555873
377.7981861	0.25	0	0.49101711
399.2329184	0.25	0	0.481812893
420.8300718	0.25	0	0.474018855
442.0582714	0.25	0	0.46680946
462.8205466	0.25	0	0.459985159
483.1877958	0.25	0	0.453548319
503.2311619	0.25	0	0.447501026
523.0220426	0.25	0	0.441845165
37.17098065	0.4	0	0.628035407
72.9032022	0.4	0	0.615880876
107.2139677	0.4	0	0.603823795
140.1291741	0.4	0	0.591900465
171.6820239	0.4	0	0.580142831
201.9120285	0.4	0	0.568579309
230.8642116	0.4	0	0.557235381
258.5884491	0.4	0	0.546134037
285.1389046	0.4	0	0.535296098
310.5735319	0.4	0	0.524740459
334.953628	0.4	0	0.514484282
358.3434265	0.4	0	0.50454314
380.8097252	0.4	0	0.49493115
402.4215457	0.4	0	0.485661077
424.1943471	0.4	0	0.477808342
445.5978699	0.4	0	0.470547243
466.5362515	0.4	0	0.4636781
487.0814855	0.4	0	0.457203163
507.3057897	0.4	0	0.451124411
527.2816079	0.4	0	0.445443614
37.84230292	0.6	0	0.639377969
74.19860042	0.6	0	0.626824305
109.0935422	0.6	0	0.614409466
142.5586521	0.6	0	0.60216249
174.6315404	0.6	0	0.59010975
205.3552701	0.6	0	0.578275393
234.7778245	0.6	0	0.566681642
262.9516406	0.6	0	0.555349017
289.9331835	0.6	0	0.544296479
315.7825487	0.6	0	0.533541537
340.5630855	0.6	0	0.523100333
364.3410371	0.6	0	0.512987702
387.1851991	0.6	0	0.503217232
409.166597	0.6	0	0.49380132
431.3027069	0.6	0	0.485815128
453.0653017	0.6	0	0.478432782
474.360561	0.6	0	0.471454475
495.2625231	0.6	0	0.464882364
515.8454412	0.6	0	0.458718342
536.1837718	0.6	0	0.452964096
38.64576096	0.773	0	0.652953077
75.75932321	0.773	0	0.640009176
111.3711587	0.773	0	0.62723689
145.5172878	0.773	0	0.614659658
178.2388681	0.773	0	0.602299526
209.5818429	0.773	0	0.590177318
239.5966198	0.773	0	0.578312736
268.3377617	0.773	0	0.566724406
295.8636769	0.773	0	0.555429894
322.2363064	0.773	0	0.544445711
347.520806	0.773	0	0.533787298
371.7852271	0.773	0	0.52346903
395.1002012	0.773	0	0.51350421
417.5386312	0.773	0	0.503905081
440.1199189	0.773	0	0.495746749
462.3178102	0.773	0	0.488203346
484.0405013	0.773	0	0.481075113
505.3640815	0.773	0	0.474364277
526.3648804	0.773	0	0.46807281
547.1194434	0.773	0	0.462202471
35.31547345	0.25	10000	0.596685031
69.42326639	0.25	10000	0.586482635
102.3122	0.25	10000	0.57621728
133.9919463	0.25	10000	0.565977041
164.4870876	0.25	10000	0.555829914
193.8329594	0.25	10000	0.545828849
222.0726884	0.25	10000	0.536015341
249.2550576	0.25	10000	0.526422086
275.4329577	0.25	10000	0.517074959
300.6622645	0.25	10000	0.507994528
325.0010323	0.25	10000	0.499197228
348.5089243	0.25	10000	0.490696282
371.2468225	0.25	10000	0.482502428
393.2765767	0.25	10000	0.474624503
414.6608585	0.25	10000	0.467069914
435.4630995	0.25	10000	0.459845019
455.747495	0.25	10000	0.452955439
475.5790601	0.25	10000	0.446406314
495.0237298	0.25	10000	0.440202523
514.1106069	0.25	10000	0.43431685
35.60030738	0.4	10000	0.601497543
69.95572583	0.4	10000	0.590980813
103.0652828	0.4	10000	0.580458606
134.9458463	0.4	10000	0.570006279
165.6272369	0.4	10000	0.559682673
195.1487415	0.4	10000	0.549534059
223.5565881	0.4	10000	0.53959702
250.9020974	0.4	10000	0.529900604
277.2403235	0.4	10000	0.520467957
302.6290557	0.4	10000	0.511317589
327.1280907	0.4	10000	0.502464361
350.7987115	0.4	10000	0.493920274
373.703322	0.4	10000	0.485695093
395.9052038	0.4	10000	0.477796852
417.4683657	0.4	10000	0.470232262
438.4574662	0.4	10000	0.463007043
458.9377919	0.4	10000	0.456126191
478.9752821	0.4	10000	0.449594207
498.6365892	0.4	10000	0.443415277
517.9891698	0.4	10000	0.437593431
36.19056725	0.6	10000	0.611470487
71.0680402	0.6	10000	0.600377563
104.6482694	0.6	10000	0.589373909
136.9602529	0.6	10000	0.578515058
168.0428152	0.6	10000	0.567845324
197.9421527	0.6	10000	0.557400236
226.7099958	0.6	10000	0.547208379
254.4022242	0.6	10000	0.537292807
281.0778213	0.6	10000	0.527672157
306.7980859	0.6	10000	0.518361521
331.6260441	0.6	10000	0.509373157
355.6260149	0.6	10000	0.500717058
378.863296	0.6	10000	0.492401413
401.4039432	0.6	10000	0.484432987
423.3146225	0.6	10000	0.476817429
444.6625172	0.6	10000	0.469559519
465.5152796	0.6	10000	0.462663383
485.9410155	0.6	10000	0.456132652
506.0082953	0.6	10000	0.449970607
525.786187	0.6	10000	0.444180294
36.90041731	0.773	10000	0.623464009
72.41930547	0.773	10000	0.611792952
106.5868768	0.773	10000	0.60029205
139.4427765	0.773	10000	0.589001147
171.0339297	0.773	10000	0.57795281
201.4128856	0.773	10000	0.567173735
230.6365328	0.773	10000	0.556685835
258.7650994	0.773	10000	0.546507119
285.8613746	0.773	10000	0.536652403
311.9901063	0.773	10000	0.527133882
337.2175383	0.773	10000	0.517961618
361.6110592	0.773	10000	0.509143927
385.2389395	0.773	10000	0.500687716
408.1701388	0.773	10000	0.492598748
430.4741678	0.773	10000	0.48488187
452.2209928	0.773	10000	0.4775412
473.4809733	0.773	10000	0.470580276
494.3248236	0.773	10000	0.464002184
514.8235959	0.773	10000	0.45780966
535.0486765	0.773	10000	0.452005176
34.51543485	0.25	20000	0.583167697
68.09315053	0.25	20000	0.575245914
100.6234562	0.25	20000	0.566706359
132.0507471	0.25	20000	0.557777487
162.3543522	0.25	20000	0.548623038
191.5367433	0.25	20000	0.539362761
219.6160338	0.25	20000	0.530085731
246.6210968	0.25	20000	0.52085921
272.5883517	0.25	20000	0.511734732
297.5596602	0.25	20000	0.502752413
321.5809862	0.25	20000	0.493944083
344.7016069	0.25	20000	0.485335626
366.9737337	0.25	20000	0.476948775
388.4524533	0.25	20000	0.468802526
408.8865986	0.25	20000	0.460565844
428.6972632	0.25	20000	0.452700358
447.9661588	0.25	20000	0.445221774
466.7664246	0.25	20000	0.438134259
485.1722095	0.25	20000	0.431442005
503.2586375	0.25	20000	0.425149186
34.75563972	0.4	20000	0.587226163
68.52371998	0.4	20000	0.578883333
101.2150039	0.4	20000	0.570037926
132.7866708	0.4	20000	0.560886001
163.2264512	0.4	20000	0.551570009
192.542638	0.4	20000	0.542195336
220.7576031	0.4	20000	0.532841129
247.9035003	0.4	20000	0.523567622
274.0193836	0.4	20000	0.514421232
299.1492785	0.4	20000	0.505438209
323.3409168	0.4	20000	0.496647313
346.6449496	0.4	20000	0.488071829
369.1145175	0.4	20000	0.479731111
390.8050954	0.4	20000	0.471641804
411.7253236	0.4	20000	0.463763356
431.7252366	0.4	20000	0.45589787
451.1833805	0.4	20000	0.448419286
470.1728947	0.4	20000	0.441331771
488.7679279	0.4	20000	0.434639517
507.0436042	0.4	20000	0.428346698
35.25668555	0.6	20000	0.595691759
69.43252699	0.6	20000	0.586560868
102.4731379	0.6	20000	0.577123675
134.3582095	0.6	20000	0.567524123
165.0906818	0.6	20000	0.557869562
194.6896268	0.6	20000	0.548241204
223.1854519	0.6	20000	0.538701211
250.6166085	0.6	20000	0.529297657
277.0273093	0.6	20000	0.520068062
302.4659435	0.6	20000	0.511041997
326.9839867	0.6	20000	0.502243019
350.6352739	0.6	20000	0.493690156
373.4755423	0.6	20000	0.485399052
395.5621804	0.6	20000	0.477382876
416.9541408	0.6	20000	0.469653045
437.7119833	0.6	20000	0.46221982
457.7828097	0.6	20000	0.454978284
477.1605256	0.6	20000	0.44789077
496.1437606	0.6	20000	0.441198516
514.8076385	0.6	20000	0.434905697
35.86418088	0.773	20000	0.605955911
70.55118707	0.773	20000	0.596011226
104.0379564	0.773	20000	0.585936656
136.3253066	0.773	20000	0.575833068
167.4309812	0.773	20000	0.565777833
197.3848661	0.773	20000	0.555830931
226.2256323	0.773	20000	0.546039274
253.9983457	0.773	20000	0.536439824
280.7527503	0.773	20000	0.527061896
306.5420326	0.773	20000	0.517928897
331.4219387	0.773	20000	0.509059654
355.4501513	0.773	20000	0.500469444
378.6858652	0.773	20000	0.49217081
401.189514	0.773	20000	0.484174204
423.0226137	0.773	20000	0.476488513
444.2476999	0.773	20000	0.469121476
464.9283398	0.773	20000	0.462080039
485.1292055	0.773	20000	0.455370639
504.9036313	0.773	20000	0.448988278
524.0285551	0.773	20000	0.442695459
33.58766081	0.25	30000	0.567492163
66.65538546	0.25	30000	0.563099781
98.87038654	0.25	30000	0.556833156
130.0503292	0.25	30000	0.549327796
160.0967973	0.25	30000	0.540994375
188.9610722	0.25	30000	0.532109734
216.6256104	0.25	30000	0.522867766
243.0938309	0.25	30000	0.513409689
268.3846848	0.25	30000	0.503843117
292.3342884	0.25	30000	0.493923702
315.1018372	0.25	30000	0.483992197
336.9465458	0.25	30000	0.474416595
357.9352652	0.25	30000	0.46520165
378.1361136	0.25	30000	0.456352286
397.618482	0.25	30000	0.447873549
416.4530221	0.25	30000	0.439770553
434.711621	0.25	30000	0.432048437
452.4673618	0.25	30000	0.424712323
469.7944754	0.25	30000	0.417767272
486.768284	0.25	30000	0.411218257
33.78664151	0.4	30000	0.570854112
66.98956704	0.4	30000	0.565922922
99.31580133	0.4	30000	0.559341711
130.6035827	0.4	30000	0.551664718
160.766076	0.4	30000	0.543255982
189.7615685	0.4	30000	0.534363912
217.5768958	0.4	30000	0.525163878
244.218015	0.4	30000	0.515783945
269.7047381	0.4	30000	0.506321275
294.0680815	0.4	30000	0.496853093
317.0180359	0.4	30000	0.486935453
339.0369444	0.4	30000	0.477359851
360.1998636	0.4	30000	0.468144905
380.574912	0.4	30000	0.459295542
400.2314802	0.4	30000	0.450816804
419.2402202	0.4	30000	0.442713808
437.6730189	0.4	30000	0.434991693
455.6029596	0.4	30000	0.427655578
473.1042732	0.4	30000	0.420710528
490.2522816	0.4	30000	0.414161512
34.20656069	0.6	30000	0.577949004
67.70639326	0.6	30000	0.571978617
100.2766277	0.6	30000	0.564753037
131.7934506	0.6	30000	0.556690676
162.1922179	0.6	30000	0.548075159
191.4451506	0.6	30000	0.539104838
219.5483019	0.6	30000	0.529922247
246.5137452	0.6	30000	0.520632485
272.3648827	0.6	30000	0.51131521
297.1337419	0.6	30000	0.502032788
320.8596166	0.6	30000	0.492836069
343.3249414	0.6	30000	0.483397298
364.8451938	0.6	30000	0.474182353
385.5775752	0.6	30000	0.465332989
405.5914765	0.6	30000	0.456854251
424.9575496	0.6	30000	0.448751255
443.7476814	0.6	30000	0.44102914
462.0349552	0.6	30000	0.433693026
479.8936018	0.6	30000	0.426747975
497.3989433	0.6	30000	0.420198959
34.72315577	0.773	30000	0.586677319
68.60744132	0.773	30000	0.579590605
101.4961031	0.773	30000	0.571621063
133.3033831	0.773	30000	0.563068575
163.9880284	0.773	30000	0.554143508
193.5376035	0.773	30000	0.544997134
221.9588454	0.773	30000	0.535740559
249.2715824	0.773	30000	0.526456987
275.5048632	0.773	30000	0.517209948
300.6945201	0.773	30000	0.508049026
324.8817129	0.773	30000	0.499013955
348.1121742	0.773	30000	0.490137663
370.3621969	0.773	30000	0.481352697
391.5189632	0.773	30000	0.472503333
411.9572493	0.773	30000	0.464024595
431.7477073	0.773	30000	0.455921599
450.962224	0.773	30000	0.448199484
469.6738826	0.773	30000	0.440863369
487.9569141	0.773	30000	0.433918319
505.8866404	0.773	30000	0.427369303
32.85998907	0.25	37500	0.555197529
65.6099964	0.25	37500	0.554268411
97.60845681	0.25	37500	0.54972603
128.5280363	0.25	37500	0.542897686
158.1943063	0.25	37500	0.534565534
186.5170439	0.25	37500	0.525227411
213.41461	0.25	37500	0.515117397
238.644827	0.25	37500	0.504013475
262.73597	0.25	37500	0.493238689
285.749435	0.25	37500	0.482798031
307.7480227	0.25	37500	0.472696837
328.7959922	0.25	37500	0.462940716
348.9590894	0.25	37500	0.453535485
368.304554	0.25	37500	0.444487102
386.9011047	0.25	37500	0.4358016
404.8189076	0.25	37500	0.427485035
422.1295291	0.25	37500	0.419543427
438.9058759	0.25	37500	0.411982719
455.2221269	0.25	37500	0.404808733
471.1536581	0.25	37500	0.398027136
33.02489156	0.4	37500	0.557983697
65.87061814	0.4	37500	0.556470125
97.95704459	0.4	37500	0.551689259
128.9826752	0.4	37500	0.544818064
158.7850583	0.4	37500	0.536561785
187.2790021	0.4	37500	0.527373066
214.4279667	0.4	37500	0.517563329
239.964429	0.4	37500	0.50680045
264.2205223	0.4	37500	0.496025664
287.3989375	0.4	37500	0.485585006
309.5624755	0.4	37500	0.475483812
330.7753952	0.4	37500	0.465727691
351.1034427	0.4	37500	0.45632246
370.6138575	0.4	37500	0.447274077
389.3753584	0.4	37500	0.438588575
407.4581116	0.4	37500	0.43027201
424.9336833	0.4	37500	0.422330402
441.8749804	0.4	37500	0.414769694
458.3561817	0.4	37500	0.407595708
474.4526631	0.4	37500	0.400814111
33.37791103	0.6	37500	0.563948262
66.43829936	0.6	37500	0.561265854
98.71216954	0.6	37500	0.555942086
129.9477346	0.6	37500	0.54889444
160.0071684	0.6	37500	0.540691504
188.8175836	0.6	37500	0.531705674
216.3465034	0.6	37500	0.522194088
242.5896931	0.6	37500	0.512344959
267.2657576	0.6	37500	0.501742536
290.7825323	0.6	37500	0.491301878
313.2844298	0.6	37500	0.481200684
334.835709	0.6	37500	0.471444563
355.502116	0.6	37500	0.462039332
375.3508903	0.6	37500	0.452990949
394.4507507	0.6	37500	0.444305447
412.8718634	0.6	37500	0.435988882
430.6857946	0.6	37500	0.428047274
447.9654511	0.6	37500	0.420486566
464.785012	0.6	37500	0.41331258
481.2198529	0.6	37500	0.406530983
33.82004989	0.773	37500	0.571418575
67.16708701	0.773	37500	0.567422598
99.68103485	0.773	37500	0.561398688
131.162881	0.773	37500	0.554027173
161.5029565	0.773	37500	0.545746027
190.644346	0.773	37500	0.536849792
218.5632368	0.773	37500	0.527544602
245.2581847	0.773	37500	0.517980765
270.7444957	0.773	37500	0.50827323
294.8010419	0.773	37500	0.498091492
317.7047903	0.773	37500	0.487990298
339.6579205	0.773	37500	0.478234177
360.7261784	0.773	37500	0.468828947
380.9768037	0.773	37500	0.459780563
400.478515	0.773	37500	0.451095062
419.3014787	0.773	37500	0.442778496
437.5172608	0.773	37500	0.434836889
455.1987683	0.773	37500	0.427276181
472.4201801	0.773	37500	0.420102194
489.256872	0.773	37500	0.413320597

