VARIABLES =  "powerdemand","mach", "altitude", "drag"
ZONE T = "FCmapR2_Drag", I = 20, J = 4, K = 5
36.84576979	0.25	0	0.002282081
72.2790193	0.25	0	0.005541466
106.3123985	0.25	0	0.009890812
138.9682787	0.25	0	0.01543856
170.2771278	0.25	0	0.022287942
200.2762744	0.25	0	0.030536043
229.0089404	0.25	0	0.040272932
256.523459	0.25	0	0.051580845
282.8726229	0.25	0	0.064533436
308.1131252	0.25	0	0.079195078
332.3050698	0.25	0	0.09562024
355.5115356	0.25	0	0.113852903
377.7981861	0.25	0	0.133926059
399.2329184	0.25	0	0.155861251
420.8300718	0.25	0	0.179668187
442.0582714	0.25	0	0.205344406
462.8205466	0.25	0	0.232875006
483.1877958	0.25	0	0.262232437
503.2311619	0.25	0	0.293376348
523.0220426	0.25	0	0.326253495
37.17098065	0.4	0	0.002864165
72.9032022	0.4	0	0.006954912
107.2139677	0.4	0	0.012413633
140.1291741	0.4	0	0.019376431
171.6820239	0.4	0	0.027972865
201.9120285	0.4	0	0.038324786
230.8642116	0.4	0	0.050545236
258.5884491	0.4	0	0.064737428
285.1389046	0.4	0	0.080993799
310.5735319	0.4	0	0.099395146
334.953628	0.4	0	0.120009827
358.3434265	0.4	0	0.142893045
380.8097252	0.4	0	0.168086205
402.4215457	0.4	0	0.195616345
424.1943471	0.4	0	0.22549565
445.5978699	0.4	0	0.25772103
466.5362515	0.4	0	0.292273784
487.0814855	0.4	0	0.329119333
507.3057897	0.4	0	0.368207034
527.2816079	0.4	0	0.409470064
37.84230292	0.6	0	0.005349019
74.19860042	0.6	0	0.01298876
109.0935422	0.6	0	0.023183285
142.5586521	0.6	0	0.036186772
174.6315404	0.6	0	0.052241185
205.3552701	0.6	0	0.071574086
234.7778245	0.6	0	0.094396589
262.9516406	0.6	0	0.120901449
289.9331835	0.6	0	0.151261303
315.7825487	0.6	0	0.185627042
340.5630855	0.6	0	0.22412633
364.3410371	0.6	0	0.26686226
387.1851991	0.6	0	0.31391216
409.166597	0.6	0	0.365326528
431.3027069	0.6	0	0.421128116
453.0653017	0.6	0	0.481311155
474.360561	0.6	0	0.54584072
495.2625231	0.6	0	0.614652232
515.8454412	0.6	0	0.687651112
536.1837718	0.6	0	0.764712563
38.64576096	0.773	0	0.020352621
75.75932321	0.773	0	0.049421272
111.3711587	0.773	0	0.088210686
145.5172878	0.773	0	0.137687991
178.2388681	0.773	0	0.198773845
209.5818429	0.773	0	0.272334105
239.5966198	0.773	0	0.359172039
268.3377617	0.773	0	0.460021073
295.8636769	0.773	0	0.575538073
322.2363064	0.773	0	0.706297169
347.520806	0.773	0	0.85278411
371.7852271	0.773	0	1.015391166
395.1002012	0.773	0	1.194412555
417.5386312	0.773	0	1.390040422
440.1199189	0.773	0	1.602361337
462.3178102	0.773	0	1.831353351
484.0405013	0.773	0	2.076883572
505.3640815	0.773	0	2.338706289
526.3648804	0.773	0	2.616461628
547.1194434	0.773	0	2.909674748
35.31547345	0.25	10000	0.001127897
69.42326639	0.25	10000	0.002738817
102.3122	0.25	10000	0.00488844
133.9919463	0.25	10000	0.007630362
164.4870876	0.25	10000	0.011015604
193.8329594	0.25	10000	0.01509215
222.0726884	0.25	10000	0.019904515
249.2550576	0.25	10000	0.025493344
275.4329577	0.25	10000	0.031895039
300.6622645	0.25	10000	0.039141417
325.0010323	0.25	10000	0.047259397
348.5089243	0.25	10000	0.056270718
371.2468225	0.25	10000	0.066191685
393.2765767	0.25	10000	0.077032945
414.6608585	0.25	10000	0.088799298
435.4630995	0.25	10000	0.101489525
455.747495	0.25	10000	0.115096264
475.5790601	0.25	10000	0.129605896
495.0237298	0.25	10000	0.144998478
514.1106069	0.25	10000	0.161247697
35.60030738	0.4	10000	0.001246336
69.95572583	0.4	10000	0.003026415
103.0652828	0.4	10000	0.005401767
134.9458463	0.4	10000	0.008431613
165.6272369	0.4	10000	0.012172334
195.1487415	0.4	10000	0.016676951
223.5565881	0.4	10000	0.021994654
250.9020974	0.4	10000	0.028170356
277.2403235	0.4	10000	0.035244282
302.6290557	0.4	10000	0.04325159
327.1280907	0.4	10000	0.052222025
350.7987115	0.4	10000	0.06217961
373.703322	0.4	10000	0.073142361
395.9052038	0.4	10000	0.085122044
417.4683657	0.4	10000	0.098123961
438.4574662	0.4	10000	0.112146767
458.9377919	0.4	10000	0.127182326
478.9752821	0.4	10000	0.14321559
498.6365892	0.4	10000	0.160224521
517.9891698	0.4	10000	0.178180042
36.19056725	0.6	10000	0.00159493
71.0680402	0.6	10000	0.00387289
104.6482694	0.6	10000	0.006912615
136.9602529	0.6	10000	0.010789896
168.0428152	0.6	10000	0.015576878
197.9421527	0.6	10000	0.021341416
226.7099958	0.6	10000	0.028146456
254.4022242	0.6	10000	0.036049473
281.0778213	0.6	10000	0.045101943
306.7980859	0.6	10000	0.055348857
331.6260441	0.6	10000	0.066828281
355.6260149	0.6	10000	0.079570955
378.863296	0.6	10000	0.093599936
401.4039432	0.6	10000	0.10893028
423.3146225	0.6	10000	0.125568773
444.6625172	0.6	10000	0.143513693
465.5152796	0.6	10000	0.162754627
485.9410155	0.6	10000	0.183272319
506.0082953	0.6	10000	0.205038569
525.786187	0.6	10000	0.228016165
36.90041731	0.773	10000	0.002359854
72.41930547	0.773	10000	0.005730319
106.5868768	0.773	10000	0.01022789
139.4427765	0.773	10000	0.015964706
171.0339297	0.773	10000	0.023047515
201.4128856	0.773	10000	0.031576711
230.6365328	0.773	10000	0.041645433
258.7650994	0.773	10000	0.05333872
285.8613746	0.773	10000	0.066732734
311.9901063	0.773	10000	0.081894046
337.2175383	0.773	10000	0.098878976
361.6110592	0.773	10000	0.117733009
385.2389395	0.773	10000	0.138490257
408.1701388	0.773	10000	0.161173001
430.4741678	0.773	10000	0.185791277
452.2209928	0.773	10000	0.212342541
473.4809733	0.773	10000	0.240811384
494.3248236	0.773	10000	0.271169316
514.8235959	0.773	10000	0.303374611
535.0486765	0.773	10000	0.337372211
34.51543485	0.25	20000	0.000795201
68.09315053	0.25	20000	0.001930947
100.6234562	0.25	20000	0.003446495
132.0507471	0.25	20000	0.005379631
162.3543522	0.25	20000	0.007766327
191.5367433	0.25	20000	0.010640413
219.6160338	0.25	20000	0.014033273
246.6210968	0.25	20000	0.017973563
272.5883517	0.25	20000	0.022486948
297.5596602	0.25	20000	0.027595859
321.5809862	0.25	20000	0.033319276
344.7016069	0.25	20000	0.039672524
366.9737337	0.25	20000	0.0466671
388.4524533	0.25	20000	0.05431051
408.8865986	0.25	20000	0.062606137
428.6972632	0.25	20000	0.071553124
447.9661588	0.25	20000	0.081146278
466.7664246	0.25	20000	0.091375999
485.1722095	0.25	20000	0.102228226
503.2586375	0.25	20000	0.113684406
34.75563972	0.4	20000	0.000832208
68.52371998	0.4	20000	0.00202081
101.2150039	0.4	20000	0.003606889
132.7866708	0.4	20000	0.005629991
163.2264512	0.4	20000	0.00812776
192.542638	0.4	20000	0.011135601
220.7576031	0.4	20000	0.014686359
247.9035003	0.4	20000	0.018810024
274.0193836	0.4	20000	0.023533455
299.1492785	0.4	20000	0.028880127
323.3409168	0.4	20000	0.034869902
346.6449496	0.4	20000	0.041518821
369.1145175	0.4	20000	0.048838913
390.8050954	0.4	20000	0.056838036
411.7253236	0.4	20000	0.065519729
431.7252366	0.4	20000	0.074883094
451.1833805	0.4	20000	0.084922698
470.1728947	0.4	20000	0.095628494
488.7679279	0.4	20000	0.106985767
507.0436042	0.4	20000	0.1189751
35.25668555	0.6	20000	0.00092975
69.43252699	0.6	20000	0.002257667
102.4731379	0.6	20000	0.004029648
134.3582095	0.6	20000	0.006289875
165.0906818	0.6	20000	0.009080404
194.6896268	0.6	20000	0.01244079
223.1854519	0.6	20000	0.016407728
250.6166085	0.6	20000	0.021014722
277.0273093	0.6	20000	0.02629178
302.4659435	0.6	20000	0.032265128
326.9839867	0.6	20000	0.038956957
350.6352739	0.6	20000	0.046385186
373.4755423	0.6	20000	0.054563257
395.5621804	0.6	20000	0.063499945
416.9541408	0.6	20000	0.073199208
437.7119833	0.6	20000	0.08366004
457.7828097	0.6	20000	0.094876373
477.1605256	0.6	20000	0.106836981
496.1437606	0.6	20000	0.119525424
514.8076385	0.6	20000	0.132920011
35.86418088	0.773	20000	0.001099098
70.55118707	0.773	20000	0.002668885
104.0379564	0.773	20000	0.004763621
136.3253066	0.773	20000	0.007435532
167.4309812	0.773	20000	0.010734336
197.3848661	0.773	20000	0.014706793
226.2256323	0.773	20000	0.019396282
253.9983457	0.773	20000	0.024842408
280.7527503	0.773	20000	0.031080645
306.5420326	0.773	20000	0.038141997
331.4219387	0.773	20000	0.046052696
355.4501513	0.773	20000	0.054833926
378.6858652	0.773	20000	0.064501575
401.189514	0.773	20000	0.07506602
423.0226137	0.773	20000	0.086531936
444.2476999	0.773	20000	0.098898137
464.9283398	0.773	20000	0.112157446
485.1292055	0.773	20000	0.126296596
504.9036313	0.773	20000	0.141296151
524.0285551	0.773	20000	0.157130469
33.58766081	0.25	30000	0.001206223
66.65538546	0.25	30000	0.002929013
98.87038654	0.25	30000	0.005227916
130.0503292	0.25	30000	0.00816025
160.0967973	0.25	30000	0.011780579
188.9610722	0.25	30000	0.01614022
216.6256104	0.25	30000	0.021286778
243.0938309	0.25	30000	0.027263722
268.3846848	0.25	30000	0.03410998
292.3342884	0.25	30000	0.041859581
315.1018372	0.25	30000	0.050541312
336.9465458	0.25	30000	0.060178421
357.9352652	0.25	30000	0.070788347
378.1361136	0.25	30000	0.082382476
397.618482	0.25	30000	0.094965939
416.4530221	0.25	30000	0.108537436
434.711621	0.25	30000	0.12308909
452.4673618	0.25	30000	0.138606339
469.7944754	0.25	30000	0.155067855
486.768284	0.25	30000	0.172445496
33.78664151	0.4	30000	0.00123568
66.98956704	0.4	30000	0.003000542
99.31580133	0.4	30000	0.005355586
130.6035827	0.4	30000	0.00835953
160.766076	0.4	30000	0.01206827
189.7615685	0.4	30000	0.016534376
217.5768958	0.4	30000	0.021806618
244.218015	0.4	30000	0.027929523
269.7047381	0.4	30000	0.034942973
294.0680815	0.4	30000	0.042881825
317.0180359	0.4	30000	0.05177557
339.0369444	0.4	30000	0.061648025
360.1998636	0.4	30000	0.072517054
380.574912	0.4	30000	0.08439432
400.2314802	0.4	30000	0.097285082
419.2402202	0.4	30000	0.111188005
437.6730189	0.4	30000	0.126095022
455.6029596	0.4	30000	0.141991214
473.1042732	0.4	30000	0.158854733
490.2522816	0.4	30000	0.17665675
34.20656069	0.6	30000	0.001313206
67.70639326	0.6	30000	0.003188793
100.2766277	0.6	30000	0.00569159
131.7934506	0.6	30000	0.008883999
162.1922179	0.6	30000	0.012825422
191.4451506	0.6	30000	0.017571728
219.5483019	0.6	30000	0.023174745
246.5137452	0.6	30000	0.029681795
272.3648827	0.6	30000	0.037135262
297.1337419	0.6	30000	0.04557219
320.8596166	0.6	30000	0.055023921
343.3249414	0.6	30000	0.065515765
364.8451938	0.6	30000	0.077066706
385.5775752	0.6	30000	0.089689141
405.5914765	0.6	30000	0.103388657
424.9575496	0.6	30000	0.118163837
443.7476814	0.6	30000	0.134006106
462.0349552	0.6	30000	0.150899611
479.8936018	0.6	30000	0.168821131
497.3989433	0.6	30000	0.18774003
34.72315577	0.773	30000	0.001442773
68.60744132	0.773	30000	0.003503414
101.4961031	0.773	30000	0.006253149
133.3033831	0.773	30000	0.009760536
163.9880284	0.773	30000	0.014090839
193.5376035	0.773	30000	0.019305437
221.9588454	0.773	30000	0.025461273
249.2715824	0.773	30000	0.03261034
275.5048632	0.773	30000	0.040799201
300.6945201	0.773	30000	0.050068556
324.8817129	0.773	30000	0.060452839
348.1121742	0.773	30000	0.071979857
370.3621969	0.773	30000	0.084670468
391.5189632	0.773	30000	0.098538292
411.9572493	0.773	30000	0.113589466
431.7477073	0.773	30000	0.129822434
450.962224	0.773	30000	0.147227776
469.6738826	0.773	30000	0.165788073
487.9569141	0.773	30000	0.185477814
505.8866404	0.773	30000	0.206263339
32.85998907	0.25	37500	0.001980497
65.6099964	0.25	37500	0.004809143
97.60845681	0.25	37500	0.008583709
128.5280363	0.25	37500	0.013398304
158.1943063	0.25	37500	0.019342518
186.5170439	0.25	37500	0.026500606
213.41461	0.25	37500	0.034950734
238.644827	0.25	37500	0.04476427
262.73597	0.25	37500	0.056005133
285.749435	0.25	37500	0.068729193
307.7480227	0.25	37500	0.082983715
328.7959922	0.25	37500	0.098806873
348.9590894	0.25	37500	0.116227296
368.304554	0.25	37500	0.135263682
386.9011047	0.25	37500	0.155924455
404.8189076	0.25	37500	0.178207478
422.1295291	0.25	37500	0.20209982
438.9058759	0.25	37500	0.227577572
455.2221269	0.25	37500	0.254605714
471.1536581	0.25	37500	0.28313804
33.02489156	0.4	37500	0.002008686
65.87061814	0.4	37500	0.004877594
97.95704459	0.4	37500	0.008705886
128.9826752	0.4	37500	0.01358901
158.7850583	0.4	37500	0.019617832
187.2790021	0.4	37500	0.026877805
214.4279667	0.4	37500	0.035448208
239.964429	0.4	37500	0.045401426
264.2205223	0.4	37500	0.056802287
287.3989375	0.4	37500	0.069707456
309.5624755	0.4	37500	0.084164872
330.7753952	0.4	37500	0.10021325
351.1034427	0.4	37500	0.117881628
370.6138575	0.4	37500	0.13718897
389.3753584	0.4	37500	0.15814382
407.4581116	0.4	37500	0.18074401
424.9336833	0.4	37500	0.204976426
441.8749804	0.4	37500	0.230816818
458.3561817	0.4	37500	0.258229668
474.4526631	0.4	37500	0.287168111
33.37791103	0.6	37500	0.002086619
66.43829936	0.6	37500	0.005066834
98.71216954	0.6	37500	0.009043654
129.9477346	0.6	37500	0.014116233
160.0071684	0.6	37500	0.020378958
188.8175836	0.6	37500	0.027920602
216.3465034	0.6	37500	0.036823517
242.5896931	0.6	37500	0.047162896
267.2657576	0.6	37500	0.059006085
290.7825323	0.6	37500	0.072411944
313.2844298	0.6	37500	0.087430274
334.835709	0.6	37500	0.104101292
355.502116	0.6	37500	0.122455163
375.3508903	0.6	37500	0.142511584
394.4507507	0.6	37500	0.164279433
412.8718634	0.6	37500	0.187756459
430.6857946	0.6	37500	0.212929037
447.9654511	0.6	37500	0.239771976
464.785012	0.6	37500	0.268248381
481.2198529	0.6	37500	0.298309569
33.82004989	0.773	37500	0.002220446
67.16708701	0.773	37500	0.005391799
99.68103485	0.773	37500	0.009623675
131.162881	0.773	37500	0.015021588
161.5029565	0.773	37500	0.021685978
190.644346	0.773	37500	0.02971131
218.5632368	0.773	37500	0.03918522
245.2581847	0.773	37500	0.050187723
270.7444957	0.773	37500	0.062790483
294.8010419	0.773	37500	0.077056137
317.7047903	0.773	37500	0.093037679
339.6579205	0.773	37500	0.110777905
360.7261784	0.773	37500	0.130308915
380.9768037	0.773	37500	0.15165167
400.478515	0.773	37500	0.174815616
419.3014787	0.773	37500	0.199798358
437.5172608	0.773	37500	0.226585398
455.1987683	0.773	37500	0.255149929
472.4201801	0.773	37500	0.285452689
489.256872	0.773	37500	0.317441873

