VARIABLES = "powerdemand","mach", "altitude", "efficiency"
ZONE T = "FCmapR2_Eff", I = 10, J = 4, K = 5
95.17692339	0.25	0	0.52942998
192.3550514	0.25	0	0.526573891
290.0647479	0.25	0	0.521162535
390.7037182	0.25	0	0.518191473
496.0880118	0.25	0	0.516950968
605.2935094	0.25	0	0.516572805
719.9820084	0.25	0	0.514633695
840.6745786	0.25	0	0.511993217
968.8037362	0.25	0	0.507967971
1101.70285	0.25	0	0.501286796
96.87568411	0.4	0	0.538879485
195.8237845	0.4	0	0.536069583
295.401085	0.4	0	0.53075039
397.9599044	0.4	0	0.527815373
505.317099	0.4	0	0.526568184
616.5230438	0.4	0	0.526156374
733.3608126	0.4	0	0.524196689
856.3183753	0.4	0	0.521520706
986.845822	0.4	0	0.517427886
1122.216676	0.4	0	0.51062081
100.2266536	0.6	0	0.557519547
202.6695233	0.6	0	0.554809862
305.9397142	0.6	0	0.549685262
412.3005635	0.6	0	0.546835431
523.571786	0.6	0	0.545590571
638.7543816	0.6	0	0.54512916
759.8754256	0.6	0	0.543148987
887.3511448	0.6	0	0.540420489
1022.673359	0.6	0	0.536213158
1162.974036	0.6	0	0.529165853
103.9972485	0.773	0	0.578493812
210.3787145	0.773	0	0.57591385
317.8207649	0.773	0	0.571032077
428.4878334	0.773	0	0.568304654
544.2054562	0.773	0	0.567091989
663.9214588	0.773	0	0.566607381
789.9445123	0.773	0	0.564641975
922.6065183	0.773	0	0.561891951
1063.450418	0.773	0	0.557593587
1209.409281	0.773	0	0.550294395
95.75512432	0.25	10000	0.526939873
193.3841895	0.25	10000	0.526450348
293.4650127	0.25	10000	0.523614236
397.158097	0.25	10000	0.523338157
506.5652989	0.25	10000	0.524585738
620.4619144	0.25	10000	0.526416356
740.2942351	0.25	10000	0.526270103
865.8530632	0.25	10000	0.52468043
997.2777722	0.25	10000	0.520502222
1129.506031	0.25	10000	0.511676771
97.43642452	0.4	10000	0.536192058
196.7808616	0.4	10000	0.535697118
298.6666484	0.4	10000	0.532895241
404.184299	0.4	10000	0.532596635
515.4467995	0.4	10000	0.533783187
631.2025298	0.4	10000	0.535528979
753.0120433	0.4	10000	0.535311106
880.6239339	0.4	10000	0.533631125
1014.181894	0.4	10000	0.529324872
1148.509172	0.4	10000	0.520285371
100.7466795	0.6	10000	0.554408371
203.4714845	0.6	10000	0.55391102
308.9188003	0.6	10000	0.551187618
418.04143	0.6	10000	0.550856279
532.9749358	0.6	10000	0.551934865
652.4146558	0.6	10000	0.55352591
778.1472252	0.6	10000	0.553179535
909.8342357	0.6	10000	0.551331673
1047.61975	0.6	10000	0.546776859
1186.07433	0.6	10000	0.537302738
104.4602459	0.773	10000	0.574844104
210.9829041	0.773	10000	0.57435938
320.4402128	0.773	10000	0.571744671
433.6308406	0.773	10000	0.571398561
552.7171306	0.773	10000	0.572379364
676.3376621	0.773	10000	0.573822824
806.5258823	0.773	10000	0.573353728
942.8536507	0.773	10000	0.571340427
1085.439006	0.773	10000	0.566515599
1228.494045	0.773	10000	0.556519265
96.41386672	0.25	20000	0.527503233
195.9093665	0.25	20000	0.528979716
298.2466102	0.25	20000	0.528637572
405.5858546	0.25	20000	0.531094987
519.4968547	0.25	20000	0.534878411
638.2625723	0.25	20000	0.538810619
762.7381231	0.25	20000	0.539991242
891.2426545	0.25	20000	0.538343572
1021.222399	0.25	20000	0.531814139
1136.600914	0.25	20000	0.514251527
98.05899723	0.4	20000	0.536504134
199.2263828	0.4	20000	0.537936074
303.289891	0.4	20000	0.53757671
412.3527268	0.4	20000	0.539955878
527.9905762	0.4	20000	0.54362362
648.4580021	0.4	20000	0.547417431
774.7133054	0.4	20000	0.548469241
905.0241945	0.4	20000	0.546668133
1036.797138	0.4	20000	0.539924877
1154.59739	0.4	20000	0.522393977
101.2925188	0.6	20000	0.554195501
205.7484493	0.6	20000	0.555546467
313.2109972	0.6	20000	0.555161719
425.6709611	0.6	20000	0.557395459
544.7155713	0.6	20000	0.560843818
668.5450755	0.6	20000	0.564374603
798.3099807	0.6	20000	0.565174841
932.1790149	0.6	20000	0.56307065
1067.449927	0.6	20000	0.555887694
1190.140689	0.6	20000	0.538475431
104.9102562	0.773	20000	0.573989004
213.0500276	0.773	20000	0.575261639
324.3268559	0.773	20000	0.57486441
440.6054854	0.773	20000	0.576951494
563.4878202	0.773	20000	0.580171886
691.1045438	0.773	20000	0.58341893
824.8290194	0.773	20000	0.58394937
962.6981442	0.773	20000	0.581505335
1101.850684	0.773	20000	0.573802312
1230.250898	0.773	20000	0.556623169
97.7272208	0.25	30000	0.530863043
198.3625535	0.25	30000	0.533391509
303.4627906	0.25	30000	0.534621723
413.6914842	0.25	30000	0.538676667
530.4276397	0.25	30000	0.543446124
650.9448675	0.25	30000	0.547289173
774.2638217	0.25	30000	0.546452257
894.7932375	0.25	30000	0.539345442
1003.487465	0.25	30000	0.521999244
1095.949368	0.25	30000	0.495812713
99.34363267	0.4	30000	0.539643538
201.6042496	0.4	30000	0.542108341
308.3825556	0.4	30000	0.543289057
420.2595333	0.4	30000	0.547229067
538.6269664	0.4	30000	0.55184669
660.7289366	0.4	30000	0.555515238
785.6697164	0.4	30000	0.554502197
907.9687408	0.4	30000	0.547287107
1018.49651	0.4	30000	0.529806726
1112.67626	0.4	30000	0.503380038
102.517655	0.6	30000	0.556885112
207.9714891	0.6	30000	0.559229675
318.0490524	0.6	30000	0.560318885
433.1681575	0.6	30000	0.564037667
554.7458262	0.6	30000	0.568361161
679.9590705	0.6	30000	0.571683188
808.0757169	0.6	30000	0.570315682
933.9251545	0.6	30000	0.562932591
1048.044935	0.6	30000	0.545177376
1144.797255	0.6	30000	0.517911729
106.0635122	0.773	30000	0.576146527
215.088042	0.773	30000	0.578365892
328.8595009	0.773	30000	0.579364055
447.6122481	0.773	30000	0.582845631
572.7880819	0.773	30000	0.586846235
701.4837002	0.773	30000	0.589780261
833.1372812	0.773	30000	0.588003385
963.0889748	0.773	30000	0.580511371
1081.214554	0.773	30000	0.562431719
1182.247122	0.773	30000	0.534854227
98.41561084	0.25	37000	0.534546445
199.8814639	0.25	37000	0.537018584
305.6174407	0.25	37000	0.538256142
416.0450561	0.25	37000	0.541910299
531.703715	0.25	37000	0.545397168
648.7732944	0.25	37000	0.546571638
763.2160668	0.25	37000	0.54019929
865.0679584	0.25	37000	0.52334378
973.4994989	0.25	37000	0.508660694
1079.456661	0.25	37000	0.49103617
100.0021793	0.4	37000	0.543163925
203.066376	0.4	37000	0.54557544
310.4471717	0.4	37000	0.546762307
422.4871618	0.4	37000	0.550301321
539.737391	0.4	37000	0.553637742
658.3458734	0.4	37000	0.554636242
774.3771514	0.4	37000	0.548099032
877.9631618	0.4	37000	0.531145046
987.9265318	0.4	37000	0.516198925
1095.250437	0.4	37000	0.498220632
103.1158319	0.6	37000	0.560075794
209.3178394	0.6	37000	0.562371155
319.9285399	0.6	37000	0.563460977
435.1337142	0.6	37000	0.566773809
555.5061903	0.6	37000	0.56981265
677.1183226	0.6	37000	0.570451456
796.3274718	0.6	37000	0.563635324
931.9719723	0.6	37000	0.561755291
1048.512858	0.6	37000	0.545420783
1150.925972	0.6	37000	0.52068439
106.591198	0.773	37000	0.578952318
216.2977124	0.773	37000	0.581123877
330.5179349	0.773	37000	0.582111113
449.2611064	0.773	37000	0.585175131
573.1130422	0.773	37000	0.587872947
698.0591276	0.773	37000	0.588093443
820.9206344	0.773	37000	0.581042202
931.6819521	0.773	37000	0.563643527
1047.870108	0.773	37000	0.547519887
1160.48995	0.773	37000	0.527897563
