VARIABLES = "deltaM", "deltaCL", "Artc", "deltaCDP",			
ZONE T = "fig16t20", I = 31, J = 10, K = 5			
-0.2	0.3	0.5	0.149897614
-0.19	0.3	0.5	0.149977507
-0.18	0.3	0.5	0.1500574
-0.17	0.3	0.5	0.150088911
-0.16	0.3	0.5	0.150147426
-0.15	0.3	0.5	0.150263365
-0.14	0.3	0.5	0.150244325
-0.13	0.3	0.5	0.150237605
-0.12	0.3	0.5	0.150295127
-0.11	0.3	0.5	0.150347171
-0.1	0.3	0.5	0.150326833
-0.09	0.3	0.5	0.150339525
-0.08	0.3	0.5	0.150347017
-0.07	0.3	0.5	0.150224259
-0.06	0.3	0.5	0.150411848
-0.05	0.3	0.5	0.151104955
-0.04	0.3	0.5	0.152283592
-0.03	0.3	0.5	0.153856069
-0.02	0.3	0.5	0.155881028
-0.01	0.3	0.5	0.158587265
0	0.3	0.5	0.16155683
0.01	0.3	0.5	0.164718778
0.02	0.3	0.5	0.167485845
0.03	0.3	0.5	0.170052067
0.04	0.3	0.5	0.172449175
0.05	0.3	0.5	0.181755361
0.06	0.3	0.5	0.218106434
0.07	0.3	0.5	0.254457506
0.08	0.3	0.5	0.290808578
0.09	0.3	0.5	0.32715965
0.1	0.3	0.5	0.363510723
-0.2	0.2	0.5	0.082439981
-0.19	0.2	0.5	0.082560608
-0.18	0.2	0.5	0.082681236
-0.17	0.2	0.5	0.082719689
-0.16	0.2	0.5	0.082786593
-0.15	0.2	0.5	0.082756894
-0.14	0.2	0.5	0.082761831
-0.13	0.2	0.5	0.082774525
-0.12	0.2	0.5	0.082838859
-0.11	0.2	0.5	0.082692847
-0.1	0.2	0.5	0.082654302
-0.09	0.2	0.5	0.082643906
-0.08	0.2	0.5	0.082627437
-0.07	0.2	0.5	0.082710034
-0.06	0.2	0.5	0.082718882
-0.05	0.2	0.5	0.082818136
-0.04	0.2	0.5	0.083072897
-0.03	0.2	0.5	0.083612429
-0.02	0.2	0.5	0.084231294
-0.01	0.2	0.5	0.085086599
0	0.2	0.5	0.086059786
0.01	0.2	0.5	0.087689636
0.02	0.2	0.5	0.08949905
0.03	0.2	0.5	0.091980754
0.04	0.2	0.5	0.095288372
0.05	0.2	0.5	0.102958324
0.06	0.2	0.5	0.123549989
0.07	0.2	0.5	0.144141654
0.08	0.2	0.5	0.164733319
0.09	0.2	0.5	0.185324984
0.1	0.2	0.5	0.205916649
-0.2	0.1	0.5	0.027874642
-0.19	0.1	0.5	0.027921042
-0.18	0.1	0.5	0.027967443
-0.17	0.1	0.5	0.028037354
-0.16	0.1	0.5	0.028128607
-0.15	0.1	0.5	0.028162179
-0.14	0.1	0.5	0.028179913
-0.13	0.1	0.5	0.028172968
-0.12	0.1	0.5	0.028201907
-0.11	0.1	0.5	0.028201227
-0.1	0.1	0.5	0.028238607
-0.09	0.1	0.5	0.028251301
-0.08	0.1	0.5	0.028263995
-0.07	0.1	0.5	0.028261438
-0.06	0.1	0.5	0.028199334
-0.05	0.1	0.5	0.028196537
-0.04	0.1	0.5	0.028160175
-0.03	0.1	0.5	0.02838941
-0.02	0.1	0.5	0.02896801
-0.01	0.1	0.5	0.029698469
0	0.1	0.5	0.030591562
0.01	0.1	0.5	0.031582198
0.02	0.1	0.5	0.032440129
0.03	0.1	0.5	0.033114918
0.04	0.1	0.5	0.033637954
0.05	0.1	0.5	0.034224721
0.06	0.1	0.5	0.041069665
0.07	0.1	0.5	0.047914609
0.08	0.1	0.5	0.054759554
0.09	0.1	0.5	0.061604498
0.1	0.1	0.5	0.068449442
-0.2	0.05	0.5	0.013977066
-0.19	0.05	0.5	0.014052394
-0.18	0.05	0.5	0.014127722
-0.17	0.05	0.5	0.014139113
-0.16	0.05	0.5	0.014121761
-0.15	0.05	0.5	0.014113579
-0.14	0.05	0.5	0.014122368
-0.13	0.05	0.5	0.014135062
-0.12	0.05	0.5	0.014147755
-0.11	0.05	0.5	0.014166214
-0.1	0.05	0.5	0.01429749
-0.09	0.05	0.5	0.014102804
-0.08	0.05	0.5	0.014070663
-0.07	0.05	0.5	0.01407369
-0.06	0.05	0.5	0.014055567
-0.05	0.05	0.5	0.014006724
-0.04	0.05	0.5	0.014040295
-0.03	0.05	0.5	0.014040959
-0.02	0.05	0.5	0.014103321
-0.01	0.05	0.5	0.014146734
0	0.05	0.5	0.014309075
0.01	0.05	0.5	0.014865109
0.02	0.05	0.5	0.015591313
0.03	0.05	0.5	0.016505316
0.04	0.05	0.5	0.017567725
0.05	0.05	0.5	0.019452794
0.06	0.05	0.5	0.023343353
0.07	0.05	0.5	0.027233912
0.08	0.05	0.5	0.031124471
0.09	0.05	0.5	0.03501503
0.1	0.05	0.5	0.038905589
-0.2	0	0.5	0.006020756
-0.19	0	0.5	0.006031913
-0.18	0	0.5	0.006043071
-0.17	0	0.5	0.005905881
-0.16	0	0.5	0.005794739
-0.15	0	0.5	0.005795375
-0.14	0	0.5	0.005757426
-0.13	0	0.5	0.005736665
-0.12	0	0.5	0.00583656
-0.11	0	0.5	0.005826428
-0.1	0	0.5	0.005956073
-0.09	0	0.5	0.006099032
-0.08	0	0.5	0.006202034
-0.07	0	0.5	0.006445955
-0.06	0	0.5	0.006767466
-0.05	0	0.5	0.007129198
-0.04	0	0.5	0.007589887
-0.03	0	0.5	0.008198032
-0.02	0	0.5	0.008764388
-0.01	0	0.5	0.009235474
0	0	0.5	0.009668405
0.01	0	0.5	0.009904173
0.02	0	0.5	0.010115421
0.03	0	0.5	0.010237917
0.04	0	0.5	0.01028212
0.05	0	0.5	0.010763762
0.06	0	0.5	0.012916515
0.07	0	0.5	0.015069267
0.08	0	0.5	0.01722202
0.09	0	0.5	0.019374772
0.1	0	0.5	0.021527525
-0.2	-0.05	0.5	0.005449456
-0.19	-0.05	0.5	0.005443631
-0.18	-0.05	0.5	0.005435304
-0.17	-0.05	0.5	0.005433384
-0.16	-0.05	0.5	0.005428687
-0.15	-0.05	0.5	0.005421057
-0.14	-0.05	0.5	0.005412339
-0.13	-0.05	0.5	0.005401686
-0.12	-0.05	0.5	0.00540437
-0.11	-0.05	0.5	0.005394007
-0.1	-0.05	0.5	0.005392812
-0.09	-0.05	0.5	0.005381205
-0.08	-0.05	0.5	0.005387167
-0.07	-0.05	0.5	0.005394057
-0.06	-0.05	0.5	0.005403016
-0.05	-0.05	0.5	0.005414813
-0.04	-0.05	0.5	0.005431625
-0.03	-0.05	0.5	0.005458996
-0.02	-0.05	0.5	0.005491364
-0.01	-0.05	0.5	0.005531335
0	-0.05	0.5	0.005596503
0.01	-0.05	0.5	0.005704838
0.02	-0.05	0.5	0.005854298
0.03	-0.05	0.5	0.006047633
0.04	-0.05	0.5	0.006321513
0.05	-0.05	0.5	0.006722497
0.06	-0.05	0.5	0.007823422
0.07	-0.05	0.5	0.009127326
0.08	-0.05	0.5	0.01043123
0.09	-0.05	0.5	0.011735133
0.1	-0.05	0.5	0.013039037
-0.2	-0.1	0.5	0.002319294
-0.19	-0.1	0.5	0.002326809
-0.18	-0.1	0.5	0.002332978
-0.17	-0.1	0.5	0.002341937
-0.16	-0.1	0.5	0.002350895
-0.15	-0.1	0.5	0.002358876
-0.14	-0.1	0.5	0.002362084
-0.13	-0.1	0.5	0.002377544
-0.12	-0.1	0.5	0.00238673
-0.11	-0.1	0.5	0.002395688
-0.1	-0.1	0.5	0.002408853
-0.09	-0.1	0.5	0.002435992
-0.08	-0.1	0.5	0.002448764
-0.07	-0.1	0.5	0.002468855
-0.06	-0.1	0.5	0.002502441
-0.05	-0.1	0.5	0.002546083
-0.04	-0.1	0.5	0.002597039
-0.03	-0.1	0.5	0.002672486
-0.02	-0.1	0.5	0.002779118
-0.01	-0.1	0.5	0.002888566
0	-0.1	0.5	0.003004481
0.01	-0.1	0.5	0.003077251
0.02	-0.1	0.5	0.003128655
0.03	-0.1	0.5	0.003166687
0.04	-0.1	0.5	0.003174509
0.05	-0.1	0.5	0.00317373
0.06	-0.1	0.5	0.003650552
0.07	-0.1	0.5	0.004258977
0.08	-0.1	0.5	0.004867402
0.09	-0.1	0.5	0.005475828
0.1	-0.1	0.5	0.006084253
-0.2	-0.2	0.5	0.001459833
-0.19	-0.2	0.5	0.001460827
-0.18	-0.2	0.5	0.001461821
-0.17	-0.2	0.5	0.001462815
-0.16	-0.2	0.5	0.001461201
-0.15	-0.2	0.5	0.001468007
-0.14	-0.2	0.5	0.001466376
-0.13	-0.2	0.5	0.001463675
-0.12	-0.2	0.5	0.001462616
-0.11	-0.2	0.5	0.001462545
-0.1	-0.2	0.5	0.001473564
-0.09	-0.2	0.5	0.001478745
-0.08	-0.2	0.5	0.001490199
-0.07	-0.2	0.5	0.001499158
-0.06	-0.2	0.5	0.001505911
-0.05	-0.2	0.5	0.001522338
-0.04	-0.2	0.5	0.001547106
-0.03	-0.2	0.5	0.001577741
-0.02	-0.2	0.5	0.001617794
-0.01	-0.2	0.5	0.001669752
0	-0.2	0.5	0.001754477
0.01	-0.2	0.5	0.001872079
0.02	-0.2	0.5	0.002016065
0.03	-0.2	0.5	0.002133153
0.04	-0.2	0.5	0.002230403
0.05	-0.2	0.5	0.00231087
0.06	-0.2	0.5	0.002693216
0.07	-0.2	0.5	0.003142086
0.08	-0.2	0.5	0.003590955
0.09	-0.2	0.5	0.004039825
0.1	-0.2	0.5	0.004488694
-0.2	-0.3	0.5	0.000353531
-0.19	-0.3	0.5	0.000355589
-0.18	-0.3	0.5	0.000357647
-0.17	-0.3	0.5	0.000359705
-0.16	-0.3	0.5	0.00036356
-0.15	-0.3	0.5	0.000363272
-0.14	-0.3	0.5	0.000367216
-0.13	-0.3	0.5	0.000374533
-0.12	-0.3	0.5	0.00037418
-0.11	-0.3	0.5	0.000373598
-0.1	-0.3	0.5	0.000373194
-0.09	-0.3	0.5	0.000379627
-0.08	-0.3	0.5	0.000391007
-0.07	-0.3	0.5	0.000397233
-0.06	-0.3	0.5	0.000400305
-0.05	-0.3	0.5	0.000393119
-0.04	-0.3	0.5	0.000397884
-0.03	-0.3	0.5	0.000406467
-0.02	-0.3	0.5	0.000403769
-0.01	-0.3	0.5	0.000399316
0	-0.3	0.5	0.000409353
0.01	-0.3	0.5	0.00040673
0.02	-0.3	0.5	0.000409032
0.03	-0.3	0.5	0.000415462
0.04	-0.3	0.5	0.000419228
0.05	-0.3	0.5	0.000418263
0.06	-0.3	0.5	0.000477251
0.07	-0.3	0.5	0.000556793
0.08	-0.3	0.5	0.000636335
0.09	-0.3	0.5	0.000715877
0.1	-0.3	0.5	0.000795419
-0.2	-0.4	0.5	0.001459833
-0.19	-0.4	0.5	0.001460827
-0.18	-0.4	0.5	0.001461821
-0.17	-0.4	0.5	0.001462815
-0.16	-0.4	0.5	0.001461201
-0.15	-0.4	0.5	0.001468007
-0.14	-0.4	0.5	0.001466376
-0.13	-0.4	0.5	0.001463675
-0.12	-0.4	0.5	0.001462616
-0.11	-0.4	0.5	0.001462545
-0.1	-0.4	0.5	0.001473564
-0.09	-0.4	0.5	0.001478745
-0.08	-0.4	0.5	0.001490199
-0.07	-0.4	0.5	0.001499158
-0.06	-0.4	0.5	0.001505911
-0.05	-0.4	0.5	0.001522338
-0.04	-0.4	0.5	0.001547106
-0.03	-0.4	0.5	0.001577741
-0.02	-0.4	0.5	0.001617794
-0.01	-0.4	0.5	0.001669752
0	-0.4	0.5	0.001754477
0.01	-0.4	0.5	0.001872079
0.02	-0.4	0.5	0.002016065
0.03	-0.4	0.5	0.002133153
0.04	-0.4	0.5	0.002230403
0.05	-0.4	0.5	0.00231087
0.06	-0.4	0.5	0.002693216
0.07	-0.4	0.5	0.003142086
0.08	-0.4	0.5	0.003590955
0.09	-0.4	0.5	0.004039825
0.1	-0.4	0.5	0.004488694
-0.2	0.3	1	0.120289895
-0.19	0.3	1	0.120334632
-0.18	0.3	1	0.120379369
-0.17	0.3	1	0.120553153
-0.16	0.3	1	0.120574001
-0.15	0.3	1	0.120566965
-0.14	0.3	1	0.120497295
-0.13	0.3	1	0.120538607
-0.12	0.3	1	0.120657659
-0.11	0.3	1	0.120641596
-0.1	0.3	1	0.120594173
-0.09	0.3	1	0.120554086
-0.08	0.3	1	0.120615091
-0.07	0.3	1	0.120623177
-0.06	0.3	1	0.120733682
-0.05	0.3	1	0.120730565
-0.04	0.3	1	0.121067521
-0.03	0.3	1	0.12194163
-0.02	0.3	1	0.123317381
-0.01	0.3	1	0.125049277
0	0.3	1	0.127017191
0.01	0.3	1	0.129360199
0.02	0.3	1	0.131918933
0.03	0.3	1	0.134718643
0.04	0.3	1	0.13773116
0.05	0.3	1	0.146801974
0.06	0.3	1	0.176162368
0.07	0.3	1	0.205522763
0.08	0.3	1	0.234883158
0.09	0.3	1	0.264243553
0.1	0.3	1	0.293603947
-0.2	0.2	1	0.06088718
-0.19	0.2	1	0.060851398
-0.18	0.2	1	0.060815615
-0.17	0.2	1	0.060806772
-0.16	0.2	1	0.06076891
-0.15	0.2	1	0.060689982
-0.14	0.2	1	0.060691011
-0.13	0.2	1	0.060693688
-0.12	0.2	1	0.060630275
-0.11	0.2	1	0.06061561
-0.1	0.2	1	0.060620519
-0.09	0.2	1	0.060608527
-0.08	0.2	1	0.060608883
-0.07	0.2	1	0.060581496
-0.06	0.2	1	0.060548802
-0.05	0.2	1	0.060709337
-0.04	0.2	1	0.06101192
-0.03	0.2	1	0.061440216
-0.02	0.2	1	0.062096697
-0.01	0.2	1	0.062821795
0	0.2	1	0.063889019
0.01	0.2	1	0.065066429
0.02	0.2	1	0.06663946
0.03	0.2	1	0.068505589
0.04	0.2	1	0.070827894
0.05	0.2	1	0.073654146
0.06	0.2	1	0.086017556
0.07	0.2	1	0.100353816
0.08	0.2	1	0.114690075
0.09	0.2	1	0.129026335
0.1	0.2	1	0.143362594
-0.2	0.1	1	0.024181244
-0.19	0.1	1	0.024273524
-0.18	0.1	1	0.024365805
-0.17	0.1	1	0.024355665
-0.16	0.1	1	0.024297581
-0.15	0.1	1	0.024302411
-0.14	0.1	1	0.024275783
-0.13	0.1	1	0.024249156
-0.12	0.1	1	0.024222529
-0.11	0.1	1	0.024195902
-0.1	0.1	1	0.024169274
-0.09	0.1	1	0.024171461
-0.08	0.1	1	0.024211057
-0.07	0.1	1	0.02428892
-0.06	0.1	1	0.024329826
-0.05	0.1	1	0.024421975
-0.04	0.1	1	0.024847779
-0.03	0.1	1	0.025239109
-0.02	0.1	1	0.025853635
-0.01	0.1	1	0.026565855
0	0.1	1	0.027435644
0.01	0.1	1	0.028646561
0.02	0.1	1	0.030148592
0.03	0.1	1	0.031887123
0.04	0.1	1	0.034117207
0.05	0.1	1	0.037890288
0.06	0.1	1	0.045468346
0.07	0.1	1	0.053046404
0.08	0.1	1	0.060624462
0.09	0.1	1	0.068202519
0.1	0.1	1	0.075780577
-0.2	0.05	1	0.013298603
-0.19	0.05	1	0.013358895
-0.18	0.05	1	0.013419187
-0.17	0.05	1	0.01337748
-0.16	0.05	1	0.01335684
-0.15	0.05	1	0.013311784
-0.14	0.05	1	0.013295232
-0.13	0.05	1	0.0132894
-0.12	0.05	1	0.013257993
-0.11	0.05	1	0.013223704
-0.1	0.05	1	0.013197077
-0.09	0.05	1	0.0129968
-0.08	0.05	1	0.0131332
-0.07	0.05	1	0.013149958
-0.06	0.05	1	0.013227558
-0.05	0.05	1	0.013330448
-0.04	0.05	1	0.01369109
-0.03	0.05	1	0.014098018
-0.02	0.05	1	0.014706147
-0.01	0.05	1	0.015494691
0	0.05	1	0.016355855
0.01	0.05	1	0.017650883
0.02	0.05	1	0.019135744
0.03	0.05	1	0.020931652
0.04	0.05	1	0.023104585
0.05	0.05	1	0.026222699
0.06	0.05	1	0.031467239
0.07	0.05	1	0.036711779
0.08	0.05	1	0.041956318
0.09	0.05	1	0.047200858
0.1	0.05	1	0.052445398
-0.2	0	1	0.006957573
-0.19	0	1	0.007111817
-0.18	0	1	0.00726606
-0.17	0	1	0.00723556
-0.16	0	1	0.007272107
-0.15	0	1	0.007349584
-0.14	0	1	0.007330017
-0.13	0	1	0.007408639
-0.12	0	1	0.007342225
-0.11	0	1	0.007289473
-0.1	0	1	0.007288971
-0.09	0	1	0.007424352
-0.08	0	1	0.007394385
-0.07	0	1	0.007452829
-0.06	0	1	0.007435656
-0.05	0	1	0.007402696
-0.04	0	1	0.007561002
-0.03	0	1	0.007962973
-0.02	0	1	0.008245961
-0.01	0	1	0.008773425
0	0	1	0.009410734
0.01	0	1	0.010256135
0.02	0	1	0.011409798
0.03	0	1	0.012492476
0.04	0	1	0.013998707
0.05	0	1	0.015998014
0.06	0	1	0.019197616
0.07	0	1	0.022397219
0.08	0	1	0.025596822
0.09	0	1	0.028796425
0.1	0	1	0.031996027
-0.2	-0.05	1	0.005056179
-0.19	-0.05	1	0.005056179
-0.18	-0.05	1	0.005052463
-0.17	-0.05	1	0.00504825
-0.16	-0.05	1	0.005048896
-0.15	-0.05	1	0.005050694
-0.14	-0.05	1	0.005048225
-0.13	-0.05	1	0.005047499
-0.12	-0.05	1	0.005050519
-0.11	-0.05	1	0.005056176
-0.1	-0.05	1	0.005062455
-0.09	-0.05	1	0.005068265
-0.08	-0.05	1	0.005085594
-0.07	-0.05	1	0.005115311
-0.06	-0.05	1	0.005152372
-0.05	-0.05	1	0.005202234
-0.04	-0.05	1	0.005262188
-0.03	-0.05	1	0.005372013
-0.02	-0.05	1	0.005513191
-0.01	-0.05	1	0.00570557
0	-0.05	1	0.00596247
0.01	-0.05	1	0.006367258
0.02	-0.05	1	0.006908198
0.03	-0.05	1	0.007545659
0.04	-0.05	1	0.008313059
0.05	-0.05	1	0.009201507
0.06	-0.05	1	0.010792952
0.07	-0.05	1	0.012591778
0.08	-0.05	1	0.014390603
0.09	-0.05	1	0.016189429
0.1	-0.05	1	0.017988254
-0.2	-0.1	1	0.002868632
-0.19	-0.1	1	0.002868632
-0.18	-0.1	1	0.002889171
-0.17	-0.1	1	0.00290468
-0.16	-0.1	1	0.002929321
-0.15	-0.1	1	0.002949467
-0.14	-0.1	1	0.002972103
-0.13	-0.1	1	0.003002587
-0.12	-0.1	1	0.00302975
-0.11	-0.1	1	0.003063624
-0.1	-0.1	1	0.0030979
-0.09	-0.1	1	0.00313402
-0.08	-0.1	1	0.003186297
-0.07	-0.1	1	0.003250669
-0.06	-0.1	1	0.003312702
-0.05	-0.1	1	0.003404584
-0.04	-0.1	1	0.003526016
-0.03	-0.1	1	0.003690524
-0.02	-0.1	1	0.003899792
-0.01	-0.1	1	0.004094595
0	-0.1	1	0.004279929
0.01	-0.1	1	0.004396999
0.02	-0.1	1	0.004516064
0.03	-0.1	1	0.004600967
0.04	-0.1	1	0.004679311
0.05	-0.1	1	0.004755025
0.06	-0.1	1	0.005648817
0.07	-0.1	1	0.006590286
0.08	-0.1	1	0.007531756
0.09	-0.1	1	0.008473225
0.1	-0.1	1	0.009414695
-0.2	-0.2	1	0.001545133
-0.19	-0.2	1	0.001545133
-0.18	-0.2	1	0.00154985
-0.17	-0.2	1	0.001549709
-0.16	-0.2	1	0.001555646
-0.15	-0.2	1	0.001555793
-0.14	-0.2	1	0.001563625
-0.13	-0.2	1	0.001571876
-0.12	-0.2	1	0.001578117
-0.11	-0.2	1	0.00158511
-0.1	-0.2	1	0.001589936
-0.09	-0.2	1	0.001611244
-0.08	-0.2	1	0.001616787
-0.07	-0.2	1	0.001630382
-0.06	-0.2	1	0.001650027
-0.05	-0.2	1	0.001672128
-0.04	-0.2	1	0.001696997
-0.03	-0.2	1	0.001729838
-0.02	-0.2	1	0.001784334
-0.01	-0.2	1	0.001843769
0	-0.2	1	0.00191402
0.01	-0.2	1	0.002011958
0.02	-0.2	1	0.002155456
0.03	-0.2	1	0.002351879
0.04	-0.2	1	0.002618184
0.05	-0.2	1	0.003005501
0.06	-0.2	1	0.003634402
0.07	-0.2	1	0.004240136
0.08	-0.2	1	0.00484587
0.09	-0.2	1	0.005451603
0.1	-0.2	1	0.006057337
-0.2	-0.3	1	0.000469881
-0.19	-0.3	1	0.000469881
-0.18	-0.3	1	0.000475606
-0.17	-0.3	1	0.000479304
-0.16	-0.3	1	0.000476955
-0.15	-0.3	1	0.000480323
-0.14	-0.3	1	0.000478579
-0.13	-0.3	1	0.000484239
-0.12	-0.3	1	0.000487855
-0.11	-0.3	1	0.000493599
-0.1	-0.3	1	0.000501634
-0.09	-0.3	1	0.00048791
-0.08	-0.3	1	0.000491066
-0.07	-0.3	1	0.000496492
-0.06	-0.3	1	0.000496649
-0.05	-0.3	1	0.000502632
-0.04	-0.3	1	0.00050377
-0.03	-0.3	1	0.000496957
-0.02	-0.3	1	0.000507933
-0.01	-0.3	1	0.00050255
0	-0.3	1	0.000512154
0.01	-0.3	1	0.000507084
0.02	-0.3	1	0.000492742
0.03	-0.3	1	0.000512834
0.04	-0.3	1	0.000498084
0.05	-0.3	1	0.00052173
0.06	-0.3	1	0.000626076
0.07	-0.3	1	0.000730422
0.08	-0.3	1	0.000834769
0.09	-0.3	1	0.000939115
0.1	-0.3	1	0.001043461
-0.2	-0.4	1	0.001545133
-0.19	-0.4	1	0.001545133
-0.18	-0.4	1	0.00154985
-0.17	-0.4	1	0.001549709
-0.16	-0.4	1	0.001555646
-0.15	-0.4	1	0.001555793
-0.14	-0.4	1	0.001563625
-0.13	-0.4	1	0.001571876
-0.12	-0.4	1	0.001578117
-0.11	-0.4	1	0.00158511
-0.1	-0.4	1	0.001589936
-0.09	-0.4	1	0.001611244
-0.08	-0.4	1	0.001616787
-0.07	-0.4	1	0.001630382
-0.06	-0.4	1	0.001650027
-0.05	-0.4	1	0.001672128
-0.04	-0.4	1	0.001696997
-0.03	-0.4	1	0.001729838
-0.02	-0.4	1	0.001784334
-0.01	-0.4	1	0.001843769
0	-0.4	1	0.00191402
0.01	-0.4	1	0.002011958
0.02	-0.4	1	0.002155456
0.03	-0.4	1	0.002351879
0.04	-0.4	1	0.002618184
0.05	-0.4	1	0.003005501
0.06	-0.4	1	0.003634402
0.07	-0.4	1	0.004240136
0.08	-0.4	1	0.00484587
0.09	-0.4	1	0.005451603
0.1	-0.4	1	0.006057337
-0.2	0.3	2	0.072957245
-0.19	0.3	2	0.07300045
-0.18	0.3	2	0.073043656
-0.17	0.3	2	0.073095263
-0.16	0.3	2	0.07313827
-0.15	0.3	2	0.073169049
-0.14	0.3	2	0.073191392
-0.13	0.3	2	0.073209898
-0.12	0.3	2	0.073206959
-0.11	0.3	2	0.073144624
-0.1	0.3	2	0.073212806
-0.09	0.3	2	0.073197654
-0.08	0.3	2	0.073195745
-0.07	0.3	2	0.073252688
-0.06	0.3	2	0.07329146
-0.05	0.3	2	0.073255076
-0.04	0.3	2	0.073268096
-0.03	0.3	2	0.073301458
-0.02	0.3	2	0.07347026
-0.01	0.3	2	0.074052824
0	0.3	2	0.074604918
0.01	0.3	2	0.076014909
0.02	0.3	2	0.077600854
0.03	0.3	2	0.079879928
0.04	0.3	2	0.083695692
0.05	0.3	2	0.088909787
0.06	0.3	2	0.104062421
0.07	0.3	2	0.121406158
0.08	0.3	2	0.138749894
0.09	0.3	2	0.156093631
0.1	0.3	2	0.173437368
-0.2	0.2	2	0.035101714
-0.19	0.2	2	0.035072823
-0.18	0.2	2	0.035043932
-0.17	0.2	2	0.035024273
-0.16	0.2	2	0.035093765
-0.15	0.2	2	0.035085158
-0.14	0.2	2	0.035106194
-0.13	0.2	2	0.035081753
-0.12	0.2	2	0.035091761
-0.11	0.2	2	0.034993169
-0.1	0.2	2	0.03494299
-0.09	0.2	2	0.035019892
-0.08	0.2	2	0.035056037
-0.07	0.2	2	0.035092181
-0.06	0.2	2	0.035070694
-0.05	0.2	2	0.035168507
-0.04	0.2	2	0.035327563
-0.03	0.2	2	0.035893724
-0.02	0.2	2	0.036827585
-0.01	0.2	2	0.038122533
0	0.2	2	0.039841475
0.01	0.2	2	0.042765683
0.02	0.2	2	0.046167777
0.03	0.2	2	0.050110538
0.04	0.2	2	0.054696119
0.05	0.2	2	0.060385234
0.06	0.2	2	0.072462281
0.07	0.2	2	0.084539327
0.08	0.2	2	0.096616374
0.09	0.2	2	0.108693421
0.1	0.2	2	0.120770468
-0.2	0.1	2	0.017983624
-0.19	0.1	2	0.018004651
-0.18	0.1	2	0.018025679
-0.17	0.1	2	0.018024872
-0.16	0.1	2	0.018166686
-0.15	0.1	2	0.018225232
-0.14	0.1	2	0.01815507
-0.13	0.1	2	0.018229123
-0.12	0.1	2	0.018194663
-0.11	0.1	2	0.018170047
-0.1	0.1	2	0.018122567
-0.09	0.1	2	0.018080303
-0.08	0.1	2	0.018128041
-0.07	0.1	2	0.018193278
-0.06	0.1	2	0.018322646
-0.05	0.1	2	0.018561408
-0.04	0.1	2	0.018852112
-0.03	0.1	2	0.01943529
-0.02	0.1	2	0.020204221
-0.01	0.1	2	0.02157974
0	0.1	2	0.023070641
0.01	0.1	2	0.025339593
0.02	0.1	2	0.027882414
0.03	0.1	2	0.031026871
0.04	0.1	2	0.034956412
0.05	0.1	2	0.04006517
0.06	0.1	2	0.048078204
0.07	0.1	2	0.056091238
0.08	0.1	2	0.064104272
0.09	0.1	2	0.072117306
0.1	0.1	2	0.08013034
-0.2	0.05	2	0.010906606
-0.19	0.05	2	0.010953464
-0.18	0.05	2	0.011000323
-0.17	0.05	2	0.010998673
-0.16	0.05	2	0.011030972
-0.15	0.05	2	0.010989064
-0.14	0.05	2	0.011036191
-0.13	0.05	2	0.011122881
-0.12	0.05	2	0.011083938
-0.11	0.05	2	0.010966275
-0.1	0.05	2	0.011039545
-0.09	0.05	2	0.011049114
-0.08	0.05	2	0.011087108
-0.07	0.05	2	0.011110853
-0.06	0.05	2	0.011208155
-0.05	0.05	2	0.011394674
-0.04	0.05	2	0.011997049
-0.03	0.05	2	0.012714531
-0.02	0.05	2	0.013701467
-0.01	0.05	2	0.014967531
0	0.05	2	0.016701883
0.01	0.05	2	0.018601722
0.02	0.05	2	0.021128343
0.03	0.05	2	0.024404425
0.04	0.05	2	0.028247895
0.05	0.05	2	0.032808864
0.06	0.05	2	0.039370637
0.07	0.05	2	0.045932409
0.08	0.05	2	0.052494182
0.09	0.05	2	0.059055955
0.1	0.05	2	0.065617728
-0.2	0	2	0.007599423
-0.19	0	2	0.007329145
-0.18	0	2	0.007058866
-0.17	0	2	0.007274351
-0.16	0	2	0.007399953
-0.15	0	2	0.007436097
-0.14	0	2	0.007428003
-0.13	0	2	0.00745328
-0.12	0	2	0.007349043
-0.11	0	2	0.007356087
-0.1	0	2	0.007330602
-0.09	0	2	0.007381245
-0.08	0	2	0.007407333
-0.07	0	2	0.007447614
-0.06	0	2	0.007496673
-0.05	0	2	0.007522252
-0.04	0	2	0.007748493
-0.03	0	2	0.008158123
-0.02	0	2	0.008604529
-0.01	0	2	0.009550301
0	0	2	0.010317162
0.01	0	2	0.011975073
0.02	0	2	0.013648271
0.03	0	2	0.01638313
0.04	0	2	0.019746091
0.05	0	2	0.024456181
0.06	0	2	0.029347417
0.07	0	2	0.034238653
0.08	0	2	0.039129889
0.09	0	2	0.044021125
0.1	0	2	0.048912361
-0.2	-0.05	2	0.004691771
-0.19	-0.05	2	0.004680049
-0.18	-0.05	2	0.004668328
-0.17	-0.05	2	0.004666137
-0.16	-0.05	2	0.004655783
-0.15	-0.05	2	0.00464285
-0.14	-0.05	2	0.004627887
-0.13	-0.05	2	0.00462546
-0.12	-0.05	2	0.00461442
-0.11	-0.05	2	0.004623471
-0.1	-0.05	2	0.00462786
-0.09	-0.05	2	0.004637297
-0.08	-0.05	2	0.004653144
-0.07	-0.05	2	0.004689104
-0.06	-0.05	2	0.004753823
-0.05	-0.05	2	0.004812751
-0.04	-0.05	2	0.004919518
-0.03	-0.05	2	0.00507259
-0.02	-0.05	2	0.005314367
-0.01	-0.05	2	0.005761802
0	-0.05	2	0.006362391
0.01	-0.05	2	0.007216794
0.02	-0.05	2	0.008277673
0.03	-0.05	2	0.009530177
0.04	-0.05	2	0.010836589
0.05	-0.05	2	0.012035751
0.06	-0.05	2	0.013234914
0.07	-0.05	2	0.014434077
0.08	-0.05	2	0.01563324
0.09	-0.05	2	0.016832403
0.1	-0.05	2	0.018031566
-0.2	-0.1	2	0.002801483
-0.19	-0.1	2	0.002843234
-0.18	-0.1	2	0.002884984
-0.17	-0.1	2	0.002931895
-0.16	-0.1	2	0.002977145
-0.15	-0.1	2	0.003012455
-0.14	-0.1	2	0.003066098
-0.13	-0.1	2	0.003109106
-0.12	-0.1	2	0.003160288
-0.11	-0.1	2	0.003208871
-0.1	-0.1	2	0.003250499
-0.09	-0.1	2	0.003308553
-0.08	-0.1	2	0.00336326
-0.07	-0.1	2	0.003424459
-0.06	-0.1	2	0.003493564
-0.05	-0.1	2	0.00358605
-0.04	-0.1	2	0.003706741
-0.03	-0.1	2	0.003856417
-0.02	-0.1	2	0.004061915
-0.01	-0.1	2	0.00432352
0	-0.1	2	0.004653165
0.01	-0.1	2	0.005076971
0.02	-0.1	2	0.005638287
0.03	-0.1	2	0.006374077
0.04	-0.1	2	0.007270362
0.05	-0.1	2	0.00857526
0.06	-0.1	2	0.009890264
0.07	-0.1	2	0.011205267
0.08	-0.1	2	0.012520271
0.09	-0.1	2	0.013835274
0.1	-0.1	2	0.015150278
-0.2	-0.2	2	0.001501391
-0.19	-0.2	2	0.001510932
-0.18	-0.2	2	0.001520472
-0.17	-0.2	2	0.001530012
-0.16	-0.2	2	0.001539552
-0.15	-0.2	2	0.001549092
-0.14	-0.2	2	0.001562038
-0.13	-0.2	2	0.001573284
-0.12	-0.2	2	0.001597192
-0.11	-0.2	2	0.001613259
-0.1	-0.2	2	0.001624909
-0.09	-0.2	2	0.001643417
-0.08	-0.2	2	0.001668314
-0.07	-0.2	2	0.001692454
-0.06	-0.2	2	0.001717374
-0.05	-0.2	2	0.001751921
-0.04	-0.2	2	0.001799296
-0.03	-0.2	2	0.001850511
-0.02	-0.2	2	0.001913113
-0.01	-0.2	2	0.002000187
0	-0.2	2	0.002105169
0.01	-0.2	2	0.002275877
0.02	-0.2	2	0.002506258
0.03	-0.2	2	0.002844556
0.04	-0.2	2	0.003227803
0.05	-0.2	2	0.003654083
0.06	-0.2	2	0.004276036
0.07	-0.2	2	0.004988709
0.08	-0.2	2	0.005701381
0.09	-0.2	2	0.006414054
0.1	-0.2	2	0.007126727
-0.2	-0.3	2	0.000490692
-0.19	-0.3	2	0.000496845
-0.18	-0.3	2	0.000502999
-0.17	-0.3	2	0.000492759
-0.16	-0.3	2	0.000499034
-0.15	-0.3	2	0.000502726
-0.14	-0.3	2	0.000502115
-0.13	-0.3	2	0.000508774
-0.12	-0.3	2	0.000509037
-0.11	-0.3	2	0.000502218
-0.1	-0.3	2	0.000514727
-0.09	-0.3	2	0.000517922
-0.08	-0.3	2	0.000513366
-0.07	-0.3	2	0.000504358
-0.06	-0.3	2	0.000510532
-0.05	-0.3	2	0.00051484
-0.04	-0.3	2	0.000507176
-0.03	-0.3	2	0.000510627
-0.02	-0.3	2	0.000510428
-0.01	-0.3	2	0.00050171
0	-0.3	2	0.000517381
0.01	-0.3	2	0.000522185
0.02	-0.3	2	0.000540752
0.03	-0.3	2	0.000585783
0.04	-0.3	2	0.00063744
0.05	-0.3	2	0.000706848
0.06	-0.3	2	0.000841566
0.07	-0.3	2	0.000981827
0.08	-0.3	2	0.001122088
0.09	-0.3	2	0.001262349
0.1	-0.3	2	0.00140261
-0.2	-0.4	2	0.001501391
-0.19	-0.4	2	0.001510932
-0.18	-0.4	2	0.001520472
-0.17	-0.4	2	0.001530012
-0.16	-0.4	2	0.001539552
-0.15	-0.4	2	0.001549092
-0.14	-0.4	2	0.001562038
-0.13	-0.4	2	0.001573284
-0.12	-0.4	2	0.001597192
-0.11	-0.4	2	0.001613259
-0.1	-0.4	2	0.001624909
-0.09	-0.4	2	0.001643417
-0.08	-0.4	2	0.001668314
-0.07	-0.4	2	0.001692454
-0.06	-0.4	2	0.001717374
-0.05	-0.4	2	0.001751921
-0.04	-0.4	2	0.001799296
-0.03	-0.4	2	0.001850511
-0.02	-0.4	2	0.001913113
-0.01	-0.4	2	0.002000187
0	-0.4	2	0.002105169
0.01	-0.4	2	0.002275877
0.02	-0.4	2	0.002506258
0.03	-0.4	2	0.002844556
0.04	-0.4	2	0.003227803
0.05	-0.4	2	0.003654083
0.06	-0.4	2	0.004276036
0.07	-0.4	2	0.004988709
0.08	-0.4	2	0.005701381
0.09	-0.4	2	0.006414054
0.1	-0.4	2	0.007126727
-0.2	0.3	4	0.03591939
-0.19	0.3	4	0.035908521
-0.18	0.3	4	0.035897652
-0.17	0.3	4	0.035900833
-0.16	0.3	4	0.035898104
-0.15	0.3	4	0.035916945
-0.14	0.3	4	0.035923127
-0.13	0.3	4	0.035917552
-0.12	0.3	4	0.035923886
-0.11	0.3	4	0.035915032
-0.1	0.3	4	0.035934088
-0.09	0.3	4	0.035926972
-0.08	0.3	4	0.035953882
-0.07	0.3	4	0.035960913
-0.06	0.3	4	0.035979211
-0.05	0.3	4	0.035996942
-0.04	0.3	4	0.036014805
-0.03	0.3	4	0.036346693
-0.02	0.3	4	0.037008076
-0.01	0.3	4	0.038063743
0	0.3	4	0.039673495
0.01	0.3	4	0.042257157
0.02	0.3	4	0.045635482
0.03	0.3	4	0.050093152
0.04	0.3	4	0.05579706
0.05	0.3	4	0.063513579
0.06	0.3	4	0.075810511
0.07	0.3	4	0.088445597
0.08	0.3	4	0.101080682
0.09	0.3	4	0.113715767
0.1	0.3	4	0.126350852
-0.2	0.2	4	0.020054127
-0.19	0.2	4	0.020063612
-0.18	0.2	4	0.020073096
-0.17	0.2	4	0.020069015
-0.16	0.2	4	0.020087691
-0.15	0.2	4	0.020142853
-0.14	0.2	4	0.020115561
-0.13	0.2	4	0.020142128
-0.12	0.2	4	0.020138167
-0.11	0.2	4	0.020160951
-0.1	0.2	4	0.020167269
-0.09	0.2	4	0.020190525
-0.08	0.2	4	0.020169462
-0.07	0.2	4	0.020208204
-0.06	0.2	4	0.020206899
-0.05	0.2	4	0.020193044
-0.04	0.2	4	0.020203886
-0.03	0.2	4	0.02041391
-0.02	0.2	4	0.021204893
-0.01	0.2	4	0.023015817
0	0.2	4	0.025646709
0.01	0.2	4	0.029609674
0.02	0.2	4	0.034657401
0.03	0.2	4	0.040528212
0.04	0.2	4	0.047831022
0.05	0.2	4	0.057126351
0.06	0.2	4	0.068249229
0.07	0.2	4	0.0796241
0.08	0.2	4	0.090998972
0.09	0.2	4	0.102373843
0.1	0.2	4	0.113748715
-0.2	0.1	4	0.010831254
-0.19	0.1	4	0.01084201
-0.18	0.1	4	0.010852766
-0.17	0.1	4	0.010888435
-0.16	0.1	4	0.010884675
-0.15	0.1	4	0.010879982
-0.14	0.1	4	0.010883589
-0.13	0.1	4	0.010906753
-0.12	0.1	4	0.010913926
-0.11	0.1	4	0.010916073
-0.1	0.1	4	0.010922508
-0.09	0.1	4	0.010947302
-0.08	0.1	4	0.010942259
-0.07	0.1	4	0.010974664
-0.06	0.1	4	0.010977962
-0.05	0.1	4	0.010992182
-0.04	0.1	4	0.010946327
-0.03	0.1	4	0.011300858
-0.02	0.1	4	0.012357537
-0.01	0.1	4	0.013807142
0	0.1	4	0.015517736
0.01	0.1	4	0.018309658
0.02	0.1	4	0.022311032
0.03	0.1	4	0.027971508
0.04	0.1	4	0.035887134
0.05	0.1	4	0.048502021
0.06	0.1	4	0.058240784
0.07	0.1	4	0.067947582
0.08	0.1	4	0.077654379
0.09	0.1	4	0.087361176
0.1	0.1	4	0.097067974
-0.2	0.05	4	0.009039109
-0.19	0.05	4	0.009060682
-0.18	0.05	4	0.009082254
-0.17	0.05	4	0.009070274
-0.16	0.05	4	0.009112771
-0.15	0.05	4	0.009096085
-0.14	0.05	4	0.009105046
-0.13	0.05	4	0.009145
-0.12	0.05	4	0.00913152
-0.11	0.05	4	0.009199087
-0.1	0.05	4	0.009186389
-0.09	0.05	4	0.009156219
-0.08	0.05	4	0.009063048
-0.07	0.05	4	0.008904829
-0.06	0.05	4	0.008643384
-0.05	0.05	4	0.008511025
-0.04	0.05	4	0.008480378
-0.03	0.05	4	0.008661344
-0.02	0.05	4	0.009234607
-0.01	0.05	4	0.01031764
0	0.05	4	0.012124348
0.01	0.05	4	0.01548518
0.02	0.05	4	0.019792416
0.03	0.05	4	0.025326616
0.04	0.05	4	0.032455065
0.05	0.05	4	0.042491688
0.06	0.05	4	0.051056169
0.07	0.05	4	0.059565531
0.08	0.05	4	0.068074893
0.09	0.05	4	0.076584254
0.1	0.05	4	0.085093616
-0.2	0	4	0.005479188
-0.19	0	4	0.005495322
-0.18	0	4	0.005511456
-0.17	0	4	0.005546505
-0.16	0	4	0.005547013
-0.15	0	4	0.005568798
-0.14	0	4	0.005573331
-0.13	0	4	0.005613916
-0.12	0	4	0.005608339
-0.11	0	4	0.0056295
-0.1	0	4	0.005607472
-0.09	0	4	0.005592786
-0.08	0	4	0.005622547
-0.07	0	4	0.005589399
-0.06	0	4	0.005645358
-0.05	0	4	0.005823323
-0.04	0	4	0.006048161
-0.03	0	4	0.00638614
-0.02	0	4	0.006804201
-0.01	0	4	0.007327422
0	0	4	0.008050804
0.01	0	4	0.009372885
0.02	0	4	0.01183564
0.03	0	4	0.015739941
0.04	0	4	0.021365881
0.05	0	4	0.03172478
0.06	0	4	0.038394331
0.07	0	4	0.044793387
0.08	0	4	0.051192442
0.09	0	4	0.057591497
0.1	0	4	0.063990552
-0.2	-0.05	4	0.003363114
-0.19	-0.05	4	0.003380512
-0.18	-0.05	4	0.003397911
-0.17	-0.05	4	0.00343031
-0.16	-0.05	4	0.003450945
-0.15	-0.05	4	0.003472175
-0.14	-0.05	4	0.00348997
-0.13	-0.05	4	0.003515927
-0.12	-0.05	4	0.003542145
-0.11	-0.05	4	0.00357451
-0.1	-0.05	4	0.003597707
-0.09	-0.05	4	0.003638502
-0.08	-0.05	4	0.003671005
-0.07	-0.05	4	0.00371281
-0.06	-0.05	4	0.003761764
-0.05	-0.05	4	0.003822622
-0.04	-0.05	4	0.003904624
-0.03	-0.05	4	0.003980891
-0.02	-0.05	4	0.004091919
-0.01	-0.05	4	0.004286542
0	-0.05	4	0.004634151
0.01	-0.05	4	0.005162893
0.02	-0.05	4	0.006003306
0.03	-0.05	4	0.007391165
0.04	-0.05	4	0.010170545
0.05	-0.05	4	0.013438898
0.06	-0.05	4	0.016707251
0.07	-0.05	4	0.019975605
0.08	-0.05	4	0.023243958
0.09	-0.05	4	0.026512311
0.1	-0.05	4	0.029780665
-0.2	-0.1	4	0.002763541
-0.19	-0.1	4	0.002771271
-0.18	-0.1	4	0.002779001
-0.17	-0.1	4	0.002791603
-0.16	-0.1	4	0.002804569
-0.15	-0.1	4	0.002811618
-0.14	-0.1	4	0.002821646
-0.13	-0.1	4	0.002842139
-0.12	-0.1	4	0.002851203
-0.11	-0.1	4	0.002863106
-0.1	-0.1	4	0.002884253
-0.09	-0.1	4	0.002902888
-0.08	-0.1	4	0.002913794
-0.07	-0.1	4	0.002939417
-0.06	-0.1	4	0.00295874
-0.05	-0.1	4	0.002996694
-0.04	-0.1	4	0.003045562
-0.03	-0.1	4	0.00309997
-0.02	-0.1	4	0.003192207
-0.01	-0.1	4	0.003333539
0	-0.1	4	0.003536126
0.01	-0.1	4	0.003956453
0.02	-0.1	4	0.004603533
0.03	-0.1	4	0.005793068
0.04	-0.1	4	0.008538354
0.05	-0.1	4	0.011866881
0.06	-0.1	4	0.015195408
0.07	-0.1	4	0.018523935
0.08	-0.1	4	0.021852462
0.09	-0.1	4	0.025180989
0.1	-0.1	4	0.028509516
-0.2	-0.2	4	0.001038619
-0.19	-0.2	4	0.001049839
-0.18	-0.2	4	0.00106106
-0.17	-0.2	4	0.001071504
-0.16	-0.2	4	0.001081438
-0.15	-0.2	4	0.001116377
-0.14	-0.2	4	0.001123685
-0.13	-0.2	4	0.001137468
-0.12	-0.2	4	0.001163469
-0.11	-0.2	4	0.001173403
-0.1	-0.2	4	0.001201242
-0.09	-0.2	4	0.001222925
-0.08	-0.2	4	0.001255757
-0.07	-0.2	4	0.001287257
-0.06	-0.2	4	0.001320389
-0.05	-0.2	4	0.00137001
-0.04	-0.2	4	0.001425287
-0.03	-0.2	4	0.001489213
-0.02	-0.2	4	0.001581701
-0.01	-0.2	4	0.001704457
0	-0.2	4	0.001868899
0.01	-0.2	4	0.002086884
0.02	-0.2	4	0.00240982
0.03	-0.2	4	0.00287213
0.04	-0.2	4	0.003531512
0.05	-0.2	4	0.004414416
0.06	-0.2	4	0.005208792
0.07	-0.2	4	0.006002122
0.08	-0.2	4	0.006795452
0.09	-0.2	4	0.007588782
0.1	-0.2	4	0.008382112
-0.2	-0.3	4	0.000311283
-0.19	-0.3	4	0.000321432
-0.18	-0.3	4	0.000331582
-0.17	-0.3	4	0.000332098
-0.16	-0.3	4	0.00034293
-0.15	-0.3	4	0.000347156
-0.14	-0.3	4	0.000356649
-0.13	-0.3	4	0.000364905
-0.12	-0.3	4	0.00037608
-0.11	-0.3	4	0.000388887
-0.1	-0.3	4	0.000381292
-0.09	-0.3	4	0.000389217
-0.08	-0.3	4	0.000399528
-0.07	-0.3	4	0.00040502
-0.06	-0.3	4	0.000410752
-0.05	-0.3	4	0.000414833
-0.04	-0.3	4	0.000418475
-0.03	-0.3	4	0.000428599
-0.02	-0.3	4	0.000438105
-0.01	-0.3	4	0.000443385
0	-0.3	4	0.000450204
0.01	-0.3	4	0.000465274
0.02	-0.3	4	0.000488049
0.03	-0.3	4	0.000523238
0.04	-0.3	4	0.000574277
0.05	-0.3	4	0.000664282
0.06	-0.3	4	0.000796809
0.07	-0.3	4	0.000929611
0.08	-0.3	4	0.001062413
0.09	-0.3	4	0.001195214
0.1	-0.3	4	0.001328016
-0.2	-0.4	4	0.001038619
-0.19	-0.4	4	0.001049839
-0.18	-0.4	4	0.00106106
-0.17	-0.4	4	0.001071504
-0.16	-0.4	4	0.001081438
-0.15	-0.4	4	0.001116377
-0.14	-0.4	4	0.001123685
-0.13	-0.4	4	0.001137468
-0.12	-0.4	4	0.001163469
-0.11	-0.4	4	0.001173403
-0.1	-0.4	4	0.001201242
-0.09	-0.4	4	0.001222925
-0.08	-0.4	4	0.001255757
-0.07	-0.4	4	0.001287257
-0.06	-0.4	4	0.001320389
-0.05	-0.4	4	0.00137001
-0.04	-0.4	4	0.001425287
-0.03	-0.4	4	0.001489213